   8   8   1   0
  0.1655337E+02  0.3915634E-09  0.3915634E-09  0.8637186E-09  0.5000000E-15
  1.000000000000000E-004
  CAR 
 unknown system                          
     12.33617284     -3.77216191  301      7.04501968      1.00000000
     -3.772  0.0000E+00  0.0000E+00  0.0000E+00  0.0000E+00
     -3.718  0.0000E+00  0.0000E+00  0.0000E+00  0.0000E+00
     -3.665  0.0000E+00  0.0000E+00  0.0000E+00  0.0000E+00
     -3.611  0.0000E+00  0.0000E+00  0.0000E+00  0.0000E+00
     -3.557  0.0000E+00  0.0000E+00  0.0000E+00  0.0000E+00
     -3.504  0.0000E+00  0.0000E+00  0.0000E+00  0.0000E+00
     -3.450  0.8161E-05  0.8144E-05  0.4382E-06  0.4373E-06
     -3.396  0.3156E-04  0.3150E-04  0.2133E-05  0.2128E-05
     -3.343  0.1323E-03  0.1320E-03  0.9236E-05  0.9217E-05
     -3.289  0.3770E-03  0.3762E-03  0.2948E-04  0.2942E-04
     -3.235  0.1093E-02  0.1091E-02  0.8818E-04  0.8801E-04
     -3.182  0.3180E-02  0.3174E-02  0.2589E-03  0.2584E-03
     -3.128  0.8820E-02  0.8803E-02  0.7325E-03  0.7311E-03
     -3.074  0.2266E-01  0.2262E-01  0.1949E-02  0.1946E-02
     -3.020  0.5040E-01  0.5033E-01  0.4655E-02  0.4648E-02
     -2.967  0.9111E-01  0.9103E-01  0.9547E-02  0.9536E-02
     -2.913  0.1322E+00  0.1321E+00  0.1665E-01  0.1663E-01
     -2.859  0.1655E+00  0.1655E+00  0.2553E-01  0.2552E-01
     -2.806  0.2014E+00  0.2013E+00  0.3635E-01  0.3633E-01
     -2.752  0.2405E+00  0.2404E+00  0.4926E-01  0.4923E-01
     -2.698  0.2617E+00  0.2616E+00  0.6331E-01  0.6328E-01
     -2.645  0.2703E+00  0.2703E+00  0.7783E-01  0.7780E-01
     -2.591  0.2896E+00  0.2895E+00  0.9338E-01  0.9335E-01
     -2.537  0.3096E+00  0.3095E+00  0.1100E+00  0.1100E+00
     -2.483  0.3319E+00  0.3319E+00  0.1278E+00  0.1278E+00
     -2.430  0.3730E+00  0.3730E+00  0.1479E+00  0.1478E+00
     -2.376  0.4015E+00  0.4015E+00  0.1694E+00  0.1694E+00
     -2.322  0.4004E+00  0.4004E+00  0.1909E+00  0.1909E+00
     -2.269  0.3907E+00  0.3908E+00  0.2119E+00  0.2119E+00
     -2.215  0.3837E+00  0.3836E+00  0.2325E+00  0.2325E+00
     -2.161  0.4084E+00  0.4083E+00  0.2545E+00  0.2544E+00
     -2.108  0.4580E+00  0.4579E+00  0.2791E+00  0.2790E+00
     -2.054  0.4794E+00  0.4794E+00  0.3048E+00  0.3048E+00
     -2.000  0.4928E+00  0.4928E+00  0.3313E+00  0.3313E+00
     -1.947  0.5307E+00  0.5306E+00  0.3598E+00  0.3598E+00
     -1.893  0.5590E+00  0.5590E+00  0.3898E+00  0.3898E+00
     -1.839  0.5463E+00  0.5463E+00  0.4192E+00  0.4191E+00
     -1.785  0.5073E+00  0.5074E+00  0.4464E+00  0.4464E+00
     -1.732  0.4827E+00  0.4827E+00  0.4724E+00  0.4723E+00
     -1.678  0.4950E+00  0.4949E+00  0.4990E+00  0.4989E+00
     -1.624  0.5534E+00  0.5532E+00  0.5287E+00  0.5286E+00
     -1.571  0.6419E+00  0.6416E+00  0.5632E+00  0.5631E+00
     -1.517  0.7040E+00  0.7039E+00  0.6010E+00  0.6009E+00
     -1.463  0.7184E+00  0.7184E+00  0.6396E+00  0.6395E+00
     -1.410  0.7035E+00  0.7036E+00  0.6774E+00  0.6773E+00
     -1.356  0.6678E+00  0.6679E+00  0.7132E+00  0.7132E+00
     -1.302  0.6413E+00  0.6413E+00  0.7477E+00  0.7476E+00
     -1.249  0.6479E+00  0.6479E+00  0.7825E+00  0.7824E+00
     -1.195  0.6536E+00  0.6535E+00  0.8176E+00  0.8175E+00
     -1.141  0.6518E+00  0.6518E+00  0.8526E+00  0.8525E+00
     -1.087  0.6705E+00  0.6705E+00  0.8887E+00  0.8886E+00
     -1.034  0.7136E+00  0.7135E+00  0.9270E+00  0.9269E+00
     -0.980  0.7573E+00  0.7572E+00  0.9677E+00  0.9676E+00
     -0.926  0.7323E+00  0.7325E+00  0.1007E+01  0.1007E+01
     -0.873  0.6658E+00  0.6659E+00  0.1043E+01  0.1043E+01
     -0.819  0.6817E+00  0.6815E+00  0.1079E+01  0.1079E+01
     -0.765  0.7611E+00  0.7609E+00  0.1120E+01  0.1120E+01
     -0.712  0.8068E+00  0.8068E+00  0.1164E+01  0.1164E+01
     -0.658  0.8016E+00  0.8017E+00  0.1207E+01  0.1207E+01
     -0.604  0.7580E+00  0.7582E+00  0.1247E+01  0.1247E+01
     -0.550  0.7211E+00  0.7212E+00  0.1286E+01  0.1286E+01
     -0.497  0.7201E+00  0.7201E+00  0.1325E+01  0.1325E+01
     -0.443  0.7247E+00  0.7246E+00  0.1364E+01  0.1364E+01
     -0.389  0.7579E+00  0.7578E+00  0.1405E+01  0.1404E+01
     -0.336  0.8415E+00  0.8413E+00  0.1450E+01  0.1450E+01
     -0.282  0.9146E+00  0.9146E+00  0.1499E+01  0.1499E+01
     -0.228  0.9254E+00  0.9255E+00  0.1549E+01  0.1548E+01
     -0.175  0.9154E+00  0.9154E+00  0.1598E+01  0.1598E+01
     -0.121  0.8810E+00  0.8813E+00  0.1645E+01  0.1645E+01
     -0.067  0.7816E+00  0.7820E+00  0.1687E+01  0.1687E+01
     -0.014  0.6879E+00  0.6880E+00  0.1724E+01  0.1724E+01
      0.040  0.6887E+00  0.6886E+00  0.1761E+01  0.1761E+01
      0.094  0.7965E+00  0.7964E+00  0.1804E+01  0.1804E+01
      0.148  0.8601E+00  0.8602E+00  0.1850E+01  0.1850E+01
      0.201  0.8370E+00  0.8371E+00  0.1895E+01  0.1895E+01
      0.255  0.8674E+00  0.8672E+00  0.1942E+01  0.1942E+01
      0.309  0.9891E+00  0.9888E+00  0.1995E+01  0.1995E+01
      0.362  0.1111E+01  0.1111E+01  0.2054E+01  0.2054E+01
      0.416  0.1156E+01  0.1155E+01  0.2117E+01  0.2116E+01
      0.470  0.1109E+01  0.1109E+01  0.2176E+01  0.2176E+01
      0.523  0.1045E+01  0.1045E+01  0.2232E+01  0.2232E+01
      0.577  0.1022E+01  0.1022E+01  0.2287E+01  0.2287E+01
      0.631  0.9927E+00  0.9928E+00  0.2340E+01  0.2340E+01
      0.684  0.9247E+00  0.9248E+00  0.2390E+01  0.2390E+01
      0.738  0.9059E+00  0.9058E+00  0.2439E+01  0.2439E+01
      0.792  0.9984E+00  0.9982E+00  0.2492E+01  0.2492E+01
      0.846  0.1076E+01  0.1076E+01  0.2550E+01  0.2550E+01
      0.899  0.1034E+01  0.1034E+01  0.2606E+01  0.2606E+01
      0.953  0.9684E+00  0.9684E+00  0.2658E+01  0.2658E+01
      1.007  0.9591E+00  0.9591E+00  0.2709E+01  0.2709E+01
      1.060  0.1004E+01  0.1004E+01  0.2763E+01  0.2763E+01
      1.114  0.1049E+01  0.1049E+01  0.2820E+01  0.2820E+01
      1.168  0.9628E+00  0.9631E+00  0.2871E+01  0.2871E+01
      1.221  0.8071E+00  0.8074E+00  0.2915E+01  0.2915E+01
      1.275  0.7381E+00  0.7382E+00  0.2954E+01  0.2954E+01
      1.329  0.7828E+00  0.7828E+00  0.2997E+01  0.2996E+01
      1.383  0.8809E+00  0.8809E+00  0.3044E+01  0.3044E+01
      1.436  0.9311E+00  0.9313E+00  0.3094E+01  0.3094E+01
      1.490  0.9238E+00  0.9239E+00  0.3144E+01  0.3143E+01
      1.544  0.8999E+00  0.8999E+00  0.3192E+01  0.3192E+01
      1.597  0.8485E+00  0.8486E+00  0.3237E+01  0.3237E+01
      1.651  0.8241E+00  0.8243E+00  0.3282E+01  0.3282E+01
      1.705  0.8879E+00  0.8879E+00  0.3329E+01  0.3329E+01
      1.758  0.1017E+01  0.1017E+01  0.3384E+01  0.3384E+01
      1.812  0.1160E+01  0.1160E+01  0.3446E+01  0.3446E+01
      1.866  0.1257E+01  0.1257E+01  0.3514E+01  0.3514E+01
      1.919  0.1305E+01  0.1305E+01  0.3584E+01  0.3584E+01
      1.973  0.1333E+01  0.1333E+01  0.3656E+01  0.3656E+01
      2.027  0.1343E+01  0.1343E+01  0.3728E+01  0.3728E+01
      2.081  0.1344E+01  0.1344E+01  0.3800E+01  0.3800E+01
      2.134  0.1310E+01  0.1309E+01  0.3870E+01  0.3870E+01
      2.188  0.1215E+01  0.1215E+01  0.3936E+01  0.3936E+01
      2.242  0.1104E+01  0.1104E+01  0.3995E+01  0.3995E+01
      2.295  0.1082E+01  0.1082E+01  0.4053E+01  0.4053E+01
      2.349  0.1124E+01  0.1124E+01  0.4113E+01  0.4113E+01
      2.403  0.1134E+01  0.1135E+01  0.4174E+01  0.4174E+01
      2.456  0.1138E+01  0.1138E+01  0.4236E+01  0.4236E+01
      2.510  0.1218E+01  0.1218E+01  0.4301E+01  0.4301E+01
      2.564  0.1327E+01  0.1327E+01  0.4372E+01  0.4372E+01
      2.617  0.1430E+01  0.1430E+01  0.4449E+01  0.4449E+01
      2.671  0.1477E+01  0.1477E+01  0.4528E+01  0.4528E+01
      2.725  0.1379E+01  0.1379E+01  0.4602E+01  0.4602E+01
      2.779  0.1242E+01  0.1242E+01  0.4669E+01  0.4669E+01
      2.832  0.1160E+01  0.1160E+01  0.4731E+01  0.4732E+01
      2.886  0.1142E+01  0.1142E+01  0.4793E+01  0.4793E+01
      2.940  0.1183E+01  0.1183E+01  0.4856E+01  0.4857E+01
      2.993  0.1194E+01  0.1194E+01  0.4921E+01  0.4921E+01
      3.047  0.1168E+01  0.1168E+01  0.4983E+01  0.4983E+01
      3.101  0.1168E+01  0.1168E+01  0.5046E+01  0.5046E+01
      3.154  0.1235E+01  0.1235E+01  0.5112E+01  0.5113E+01
      3.208  0.1324E+01  0.1324E+01  0.5184E+01  0.5184E+01
      3.262  0.1331E+01  0.1331E+01  0.5255E+01  0.5255E+01
      3.316  0.1272E+01  0.1272E+01  0.5323E+01  0.5324E+01
      3.369  0.1251E+01  0.1251E+01  0.5391E+01  0.5391E+01
      3.423  0.1315E+01  0.1315E+01  0.5461E+01  0.5461E+01
      3.477  0.1430E+01  0.1430E+01  0.5538E+01  0.5538E+01
      3.530  0.1513E+01  0.1513E+01  0.5619E+01  0.5619E+01
      3.584  0.1552E+01  0.1553E+01  0.5703E+01  0.5703E+01
      3.638  0.1515E+01  0.1515E+01  0.5784E+01  0.5784E+01
      3.691  0.1400E+01  0.1400E+01  0.5859E+01  0.5859E+01
      3.745  0.1335E+01  0.1335E+01  0.5931E+01  0.5931E+01
      3.799  0.1387E+01  0.1387E+01  0.6006E+01  0.6006E+01
      3.852  0.1474E+01  0.1474E+01  0.6085E+01  0.6085E+01
      3.906  0.1537E+01  0.1537E+01  0.6167E+01  0.6168E+01
      3.960  0.1563E+01  0.1563E+01  0.6251E+01  0.6252E+01
      4.014  0.1601E+01  0.1602E+01  0.6337E+01  0.6338E+01
      4.067  0.1646E+01  0.1646E+01  0.6426E+01  0.6426E+01
      4.121  0.1646E+01  0.1647E+01  0.6514E+01  0.6514E+01
      4.175  0.1677E+01  0.1678E+01  0.6604E+01  0.6605E+01
      4.228  0.1780E+01  0.1781E+01  0.6700E+01  0.6700E+01
      4.282  0.1920E+01  0.1920E+01  0.6803E+01  0.6803E+01
      4.336  0.1991E+01  0.1991E+01  0.6910E+01  0.6910E+01
      4.389  0.1959E+01  0.1959E+01  0.7015E+01  0.7016E+01
      4.443  0.1861E+01  0.1861E+01  0.7115E+01  0.7116E+01
      4.497  0.1694E+01  0.1694E+01  0.7206E+01  0.7207E+01
      4.550  0.1536E+01  0.1536E+01  0.7289E+01  0.7289E+01
      4.604  0.1506E+01  0.1506E+01  0.7370E+01  0.7370E+01
      4.658  0.1579E+01  0.1580E+01  0.7454E+01  0.7455E+01
      4.712  0.1725E+01  0.1726E+01  0.7547E+01  0.7548E+01
      4.765  0.1900E+01  0.1901E+01  0.7649E+01  0.7650E+01
      4.819  0.2098E+01  0.2100E+01  0.7762E+01  0.7763E+01
      4.873  0.2304E+01  0.2305E+01  0.7886E+01  0.7887E+01
      4.926  0.2518E+01  0.2520E+01  0.8021E+01  0.8022E+01
      4.980  0.2709E+01  0.2711E+01  0.8167E+01  0.8167E+01
      5.034  0.2737E+01  0.2737E+01  0.8313E+01  0.8314E+01
      5.087  0.2586E+01  0.2585E+01  0.8452E+01  0.8453E+01
      5.141  0.2357E+01  0.2357E+01  0.8579E+01  0.8580E+01
      5.195  0.2205E+01  0.2206E+01  0.8697E+01  0.8698E+01
      5.249  0.2269E+01  0.2273E+01  0.8819E+01  0.8821E+01
      5.302  0.2580E+01  0.2585E+01  0.8958E+01  0.8959E+01
      5.356  0.2976E+01  0.2982E+01  0.9118E+01  0.9120E+01
      5.410  0.3251E+01  0.3255E+01  0.9293E+01  0.9295E+01
      5.463  0.3311E+01  0.3312E+01  0.9470E+01  0.9473E+01
      5.517  0.3268E+01  0.3269E+01  0.9646E+01  0.9648E+01
      5.571  0.3395E+01  0.3399E+01  0.9828E+01  0.9831E+01
      5.624  0.3783E+01  0.3788E+01  0.1003E+02  0.1003E+02
      5.678  0.4090E+01  0.4093E+01  0.1025E+02  0.1025E+02
      5.732  0.4038E+01  0.4038E+01  0.1047E+02  0.1047E+02
      5.785  0.3765E+01  0.3763E+01  0.1067E+02  0.1067E+02
      5.839  0.3436E+01  0.3433E+01  0.1085E+02  0.1086E+02
      5.893  0.3144E+01  0.3142E+01  0.1102E+02  0.1103E+02
      5.947  0.2995E+01  0.2996E+01  0.1118E+02  0.1119E+02
      6.000  0.3023E+01  0.3027E+01  0.1135E+02  0.1135E+02
      6.054  0.3155E+01  0.3160E+01  0.1152E+02  0.1152E+02
      6.108  0.3204E+01  0.3205E+01  0.1169E+02  0.1169E+02
      6.161  0.3157E+01  0.3159E+01  0.1186E+02  0.1186E+02
      6.215  0.3239E+01  0.3245E+01  0.1203E+02  0.1204E+02
      6.269  0.3485E+01  0.3493E+01  0.1222E+02  0.1222E+02
      6.322  0.3620E+01  0.3622E+01  0.1241E+02  0.1242E+02
      6.376  0.3401E+01  0.3396E+01  0.1260E+02  0.1260E+02
      6.430  0.2948E+01  0.2941E+01  0.1276E+02  0.1276E+02
      6.483  0.2581E+01  0.2577E+01  0.1289E+02  0.1290E+02
      6.537  0.2400E+01  0.2400E+01  0.1302E+02  0.1303E+02
      6.591  0.2335E+01  0.2336E+01  0.1315E+02  0.1315E+02
      6.645  0.2305E+01  0.2306E+01  0.1327E+02  0.1328E+02
      6.698  0.2240E+01  0.2240E+01  0.1339E+02  0.1340E+02
      6.752  0.2129E+01  0.2128E+01  0.1351E+02  0.1351E+02
      6.806  0.2018E+01  0.2018E+01  0.1362E+02  0.1362E+02
      6.859  0.1935E+01  0.1934E+01  0.1372E+02  0.1372E+02
      6.913  0.1806E+01  0.1802E+01  0.1382E+02  0.1382E+02
      6.967  0.1599E+01  0.1592E+01  0.1390E+02  0.1391E+02
      7.020  0.1312E+01  0.1301E+01  0.1397E+02  0.1398E+02
      7.074  0.9692E+00  0.9575E+00  0.1403E+02  0.1403E+02
      7.128  0.7017E+00  0.6947E+00  0.1406E+02  0.1406E+02
      7.182  0.6263E+00  0.6254E+00  0.1410E+02  0.1410E+02
      7.235  0.7139E+00  0.7162E+00  0.1414E+02  0.1414E+02
      7.289  0.8841E+00  0.8882E+00  0.1418E+02  0.1418E+02
      7.343  0.1157E+01  0.1165E+01  0.1424E+02  0.1425E+02
      7.396  0.1599E+01  0.1611E+01  0.1433E+02  0.1433E+02
      7.450  0.2165E+01  0.2178E+01  0.1445E+02  0.1445E+02
      7.504  0.2839E+01  0.2856E+01  0.1460E+02  0.1460E+02
      7.557  0.3787E+01  0.3813E+01  0.1480E+02  0.1481E+02
      7.611  0.5027E+01  0.5060E+01  0.1507E+02  0.1508E+02
      7.665  0.6352E+01  0.6385E+01  0.1541E+02  0.1542E+02
      7.718  0.7444E+01  0.7463E+01  0.1581E+02  0.1582E+02
      7.772  0.7551E+01  0.7536E+01  0.1622E+02  0.1623E+02
      7.826  0.6473E+01  0.6435E+01  0.1657E+02  0.1657E+02
      7.880  0.4908E+01  0.4870E+01  0.1683E+02  0.1684E+02
      7.933  0.3604E+01  0.3578E+01  0.1702E+02  0.1703E+02
      7.987  0.2819E+01  0.2806E+01  0.1718E+02  0.1718E+02
      8.041  0.2493E+01  0.2489E+01  0.1731E+02  0.1731E+02
      8.094  0.2461E+01  0.2461E+01  0.1744E+02  0.1744E+02
      8.148  0.2433E+01  0.2429E+01  0.1757E+02  0.1758E+02
      8.202  0.2281E+01  0.2276E+01  0.1770E+02  0.1770E+02
      8.255  0.2133E+01  0.2129E+01  0.1781E+02  0.1781E+02
      8.309  0.2111E+01  0.2112E+01  0.1792E+02  0.1793E+02
      8.363  0.2253E+01  0.2257E+01  0.1804E+02  0.1805E+02
      8.416  0.2492E+01  0.2497E+01  0.1818E+02  0.1818E+02
      8.470  0.2691E+01  0.2694E+01  0.1832E+02  0.1833E+02
      8.524  0.2775E+01  0.2777E+01  0.1847E+02  0.1848E+02
      8.578  0.2788E+01  0.2792E+01  0.1862E+02  0.1862E+02
      8.631  0.2902E+01  0.2911E+01  0.1878E+02  0.1878E+02
      8.685  0.3225E+01  0.3240E+01  0.1895E+02  0.1896E+02
      8.739  0.3551E+01  0.3566E+01  0.1914E+02  0.1915E+02
      8.792  0.3610E+01  0.3622E+01  0.1934E+02  0.1934E+02
      8.846  0.3433E+01  0.3432E+01  0.1952E+02  0.1953E+02
      8.900  0.3099E+01  0.3081E+01  0.1969E+02  0.1969E+02
      8.953  0.2658E+01  0.2638E+01  0.1983E+02  0.1983E+02
      9.007  0.2327E+01  0.2320E+01  0.1995E+02  0.1996E+02
      9.061  0.2219E+01  0.2221E+01  0.2007E+02  0.2008E+02
      9.115  0.2265E+01  0.2269E+01  0.2020E+02  0.2020E+02
      9.168  0.2333E+01  0.2332E+01  0.2032E+02  0.2032E+02
      9.222  0.2286E+01  0.2292E+01  0.2044E+02  0.2045E+02
      9.276  0.2154E+01  0.2188E+01  0.2056E+02  0.2057E+02
      9.329  0.2077E+01  0.2142E+01  0.2067E+02  0.2068E+02
      9.383  0.2118E+01  0.2185E+01  0.2078E+02  0.2080E+02
      9.437  0.2262E+01  0.2311E+01  0.2091E+02  0.2092E+02
      9.490  0.2444E+01  0.2492E+01  0.2104E+02  0.2106E+02
      9.544  0.2678E+01  0.2753E+01  0.2118E+02  0.2120E+02
      9.598  0.2894E+01  0.3001E+01  0.2134E+02  0.2136E+02
      9.651  0.3012E+01  0.3120E+01  0.2150E+02  0.2153E+02
      9.705  0.3039E+01  0.3110E+01  0.2166E+02  0.2170E+02
      9.759  0.2941E+01  0.2997E+01  0.2182E+02  0.2186E+02
      9.813  0.2701E+01  0.2780E+01  0.2197E+02  0.2201E+02
      9.866  0.2476E+01  0.2548E+01  0.2210E+02  0.2215E+02
      9.920  0.2340E+01  0.2351E+01  0.2222E+02  0.2227E+02
      9.974  0.2157E+01  0.2144E+01  0.2234E+02  0.2239E+02
     10.027  0.2004E+01  0.2018E+01  0.2245E+02  0.2250E+02
     10.081  0.2014E+01  0.2002E+01  0.2256E+02  0.2260E+02
     10.135  0.2069E+01  0.1974E+01  0.2267E+02  0.2271E+02
     10.188  0.2027E+01  0.1897E+01  0.2278E+02  0.2281E+02
     10.242  0.1934E+01  0.1824E+01  0.2288E+02  0.2291E+02
     10.296  0.1819E+01  0.1732E+01  0.2298E+02  0.2300E+02
     10.349  0.1694E+01  0.1643E+01  0.2307E+02  0.2309E+02
     10.403  0.1579E+01  0.1573E+01  0.2315E+02  0.2318E+02
     10.457  0.1486E+01  0.1522E+01  0.2323E+02  0.2326E+02
     10.511  0.1418E+01  0.1502E+01  0.2331E+02  0.2334E+02
     10.564  0.1349E+01  0.1462E+01  0.2338E+02  0.2342E+02
     10.618  0.1249E+01  0.1371E+01  0.2345E+02  0.2349E+02
     10.672  0.1142E+01  0.1231E+01  0.2351E+02  0.2356E+02
     10.725  0.1031E+01  0.1060E+01  0.2357E+02  0.2361E+02
     10.779  0.9367E+00  0.9497E+00  0.2362E+02  0.2367E+02
     10.833  0.9055E+00  0.9309E+00  0.2366E+02  0.2372E+02
     10.886  0.9272E+00  0.9219E+00  0.2371E+02  0.2376E+02
     10.940  0.8846E+00  0.8268E+00  0.2376E+02  0.2381E+02
     10.994  0.7491E+00  0.6636E+00  0.2380E+02  0.2384E+02
     11.048  0.6198E+00  0.5357E+00  0.2384E+02  0.2387E+02
     11.101  0.5400E+00  0.4787E+00  0.2387E+02  0.2390E+02
     11.155  0.4949E+00  0.4391E+00  0.2389E+02  0.2392E+02
     11.209  0.4469E+00  0.3845E+00  0.2392E+02  0.2394E+02
     11.262  0.3616E+00  0.3053E+00  0.2394E+02  0.2396E+02
     11.316  0.2718E+00  0.2137E+00  0.2395E+02  0.2397E+02
     11.370  0.2079E+00  0.1313E+00  0.2396E+02  0.2398E+02
     11.423  0.1611E+00  0.8195E-01  0.2397E+02  0.2398E+02
     11.477  0.1311E+00  0.7493E-01  0.2398E+02  0.2399E+02
     11.531  0.1260E+00  0.8801E-01  0.2398E+02  0.2399E+02
     11.584  0.1243E+00  0.7717E-01  0.2399E+02  0.2400E+02
     11.638  0.9524E-01  0.4401E-01  0.2400E+02  0.2400E+02
     11.692  0.5288E-01  0.1862E-01  0.2400E+02  0.2400E+02
     11.746  0.2274E-01  0.6886E-02  0.2400E+02  0.2400E+02
     11.799  0.8507E-02  0.2425E-02  0.2400E+02  0.2400E+02
     11.853  0.2950E-02  0.8372E-03  0.2400E+02  0.2400E+02
     11.907  0.1021E-02  0.2871E-03  0.2400E+02  0.2400E+02
     11.960  0.1943E-03  0.0000E+00  0.2400E+02  0.2400E+02
     12.014  0.0000E+00  0.0000E+00  0.2400E+02  0.2400E+02
     12.068  0.0000E+00  0.0000E+00  0.2400E+02  0.2400E+02
     12.121  0.0000E+00  0.0000E+00  0.2400E+02  0.2400E+02
     12.175  0.0000E+00  0.0000E+00  0.2400E+02  0.2400E+02
     12.229  0.0000E+00  0.0000E+00  0.2400E+02  0.2400E+02
     12.282  0.0000E+00  0.0000E+00  0.2400E+02  0.2400E+02
     12.336  0.0000E+00  0.0000E+00  0.2400E+02  0.2400E+02
     12.33617284     -3.77216191  301      7.04501968      1.00000000
     -3.772  0.0000E+00  0.0000E+00  0.0000E+00  0.0000E+00  0.0000E+00  0.0000E+00  0.0000E+00  0.0000E+00  0.0000E+00  0.0000E+00  0.0000E+00  0.0000E+00  0.0000E+00  0.0000E+00  0.0000E+00  0.0000E+00  0.0000E+00  0.0000E+00
     -3.718  0.0000E+00  0.0000E+00  0.0000E+00  0.0000E+00  0.0000E+00  0.0000E+00  0.0000E+00  0.0000E+00  0.0000E+00  0.0000E+00  0.0000E+00  0.0000E+00  0.0000E+00  0.0000E+00  0.0000E+00  0.0000E+00  0.0000E+00  0.0000E+00
     -3.665  0.0000E+00  0.0000E+00  0.0000E+00  0.0000E+00  0.0000E+00  0.0000E+00  0.0000E+00  0.0000E+00  0.0000E+00  0.0000E+00  0.0000E+00  0.0000E+00  0.0000E+00  0.0000E+00  0.0000E+00  0.0000E+00  0.0000E+00  0.0000E+00
     -3.611  0.0000E+00  0.0000E+00  0.0000E+00  0.0000E+00  0.0000E+00  0.0000E+00  0.0000E+00  0.0000E+00  0.0000E+00  0.0000E+00  0.0000E+00  0.0000E+00  0.0000E+00  0.0000E+00  0.0000E+00  0.0000E+00  0.0000E+00  0.0000E+00
     -3.557  0.0000E+00  0.0000E+00  0.0000E+00  0.0000E+00  0.0000E+00  0.0000E+00  0.0000E+00  0.0000E+00  0.0000E+00  0.0000E+00  0.0000E+00  0.0000E+00  0.0000E+00  0.0000E+00  0.0000E+00  0.0000E+00  0.0000E+00  0.0000E+00
     -3.504  0.0000E+00  0.0000E+00  0.0000E+00  0.0000E+00  0.0000E+00  0.0000E+00  0.0000E+00  0.0000E+00  0.0000E+00  0.0000E+00  0.0000E+00  0.0000E+00  0.0000E+00  0.0000E+00  0.0000E+00  0.0000E+00  0.0000E+00  0.0000E+00
     -3.450  0.4083E-06  0.4075E-06  0.1984E-20  0.1326E-20  0.1594E-08  0.1591E-08  0.1984E-20  0.1326E-20  0.3435E-19  0.3214E-18  0.4214E-17  0.8259E-16  0.2281E-11  0.2429E-11  0.4214E-17  0.8259E-16  0.2326E-15  0.6022E-15
     -3.396  0.1574E-05  0.1571E-05  0.4034E-08  0.4027E-08  0.3070E-08  0.3064E-08  0.4034E-08  0.4027E-08  0.8300E-19  0.6383E-18  0.8158E-17  0.1590E-15  0.3364E-10  0.3387E-10  0.8158E-17  0.1590E-15  0.1653E-10  0.1648E-10
     -3.343  0.6556E-05  0.6544E-05  0.2557E-07  0.2552E-07  0.2604E-07  0.2599E-07  0.2557E-07  0.2552E-07  0.1199E-09  0.1207E-09  0.1127E-09  0.1131E-09  0.1377E-09  0.1383E-09  0.1127E-09  0.1131E-09  0.7473E-10  0.7445E-10
     -3.289  0.1865E-04  0.1862E-04  0.7603E-07  0.7589E-07  0.8882E-07  0.8865E-07  0.7603E-07  0.7589E-07  0.5440E-09  0.5449E-09  0.4264E-09  0.4271E-09  0.4496E-09  0.4509E-09  0.4264E-09  0.4271E-09  0.1756E-09  0.1749E-09
     -3.235  0.5406E-04  0.5396E-04  0.2231E-06  0.2227E-06  0.2813E-06  0.2808E-06  0.2231E-06  0.2227E-06  0.1277E-08  0.1281E-08  0.1388E-08  0.1390E-08  0.1481E-08  0.1485E-08  0.1388E-08  0.1390E-08  0.7481E-09  0.7458E-09
     -3.182  0.1571E-03  0.1568E-03  0.7027E-06  0.7014E-06  0.8249E-06  0.8233E-06  0.7027E-06  0.7014E-06  0.4733E-08  0.4741E-08  0.4710E-08  0.4714E-08  0.4631E-08  0.4642E-08  0.4710E-08  0.4714E-08  0.2679E-08  0.2671E-08
     -3.128  0.4355E-03  0.4348E-03  0.2013E-05  0.2009E-05  0.2331E-05  0.2327E-05  0.2013E-05  0.2009E-05  0.1474E-07  0.1476E-07  0.1347E-07  0.1348E-07  0.1334E-07  0.1337E-07  0.1347E-07  0.1348E-07  0.7501E-08  0.7480E-08
     -3.074  0.1118E-02  0.1116E-02  0.5511E-05  0.5502E-05  0.6429E-05  0.6418E-05  0.5511E-05  0.5502E-05  0.4013E-07  0.4020E-07  0.3896E-07  0.3900E-07  0.3634E-07  0.3639E-07  0.3896E-07  0.3900E-07  0.2068E-07  0.2062E-07
     -3.020  0.2478E-02  0.2476E-02  0.1398E-04  0.1396E-04  0.1607E-04  0.1604E-04  0.1398E-04  0.1396E-04  0.1127E-06  0.1128E-06  0.1068E-06  0.1069E-06  0.9142E-07  0.9144E-07  0.1068E-06  0.1069E-06  0.5329E-07  0.5315E-07
     -2.967  0.4460E-02  0.4457E-02  0.3024E-04  0.3020E-04  0.3515E-04  0.3511E-04  0.3024E-04  0.3020E-04  0.2812E-06  0.2816E-06  0.2633E-06  0.2635E-06  0.2071E-06  0.2070E-06  0.2633E-06  0.2635E-06  0.1235E-06  0.1232E-06
     -2.913  0.6425E-02  0.6423E-02  0.5425E-04  0.5420E-04  0.6602E-04  0.6595E-04  0.5425E-04  0.5420E-04  0.5922E-06  0.5928E-06  0.5657E-06  0.5660E-06  0.4159E-06  0.4156E-06  0.5657E-06  0.5660E-06  0.2701E-06  0.2696E-06
     -2.859  0.7959E-02  0.7957E-02  0.8693E-04  0.8686E-04  0.1090E-03  0.1090E-03  0.8693E-04  0.8686E-04  0.1091E-05  0.1091E-05  0.1098E-05  0.1098E-05  0.7784E-06  0.7782E-06  0.1098E-05  0.1098E-05  0.5870E-06  0.5860E-06
     -2.806  0.9565E-02  0.9564E-02  0.1370E-03  0.1369E-03  0.1599E-03  0.1598E-03  0.1370E-03  0.1369E-03  0.1992E-05  0.1991E-05  0.1969E-05  0.1968E-05  0.1370E-05  0.1370E-05  0.1969E-05  0.1968E-05  0.1159E-05  0.1158E-05
     -2.752  0.1130E-01  0.1130E-01  0.2005E-03  0.2004E-03  0.2121E-03  0.2120E-03  0.2005E-03  0.2004E-03  0.3530E-05  0.3529E-05  0.3201E-05  0.3200E-05  0.2171E-05  0.2173E-05  0.3201E-05  0.3200E-05  0.1824E-05  0.1822E-05
     -2.698  0.1215E-01  0.1215E-01  0.2469E-03  0.2469E-03  0.2772E-03  0.2771E-03  0.2469E-03  0.2469E-03  0.5225E-05  0.5225E-05  0.4824E-05  0.4820E-05  0.3055E-05  0.3058E-05  0.4824E-05  0.4820E-05  0.2298E-05  0.2295E-05
     -2.645  0.1236E-01  0.1236E-01  0.2765E-03  0.2765E-03  0.3774E-03  0.3772E-03  0.2765E-03  0.2765E-03  0.6937E-05  0.6939E-05  0.7157E-05  0.7147E-05  0.4117E-05  0.4121E-05  0.7157E-05  0.7147E-05  0.2753E-05  0.2748E-05
     -2.591  0.1304E-01  0.1304E-01  0.3333E-03  0.3332E-03  0.4762E-03  0.4760E-03  0.3333E-03  0.3332E-03  0.9890E-05  0.9894E-05  0.9946E-05  0.9935E-05  0.5658E-05  0.5666E-05  0.9946E-05  0.9935E-05  0.3835E-05  0.3828E-05
     -2.537  0.1376E-01  0.1376E-01  0.4245E-03  0.4243E-03  0.5098E-03  0.5098E-03  0.4245E-03  0.4243E-03  0.1358E-04  0.1359E-04  0.1230E-04  0.1229E-04  0.7666E-05  0.7679E-05  0.1230E-04  0.1229E-04  0.6261E-05  0.6254E-05
     -2.483  0.1454E-01  0.1454E-01  0.5354E-03  0.5352E-03  0.5431E-03  0.5430E-03  0.5354E-03  0.5352E-03  0.1693E-04  0.1694E-04  0.1561E-04  0.1559E-04  0.1021E-04  0.1023E-04  0.1561E-04  0.1559E-04  0.9977E-05  0.9973E-05
     -2.430  0.1609E-01  0.1609E-01  0.6479E-03  0.6478E-03  0.6948E-03  0.6944E-03  0.6479E-03  0.6478E-03  0.2137E-04  0.2138E-04  0.2211E-04  0.2210E-04  0.1343E-04  0.1345E-04  0.2211E-04  0.2210E-04  0.1311E-04  0.1312E-04
     -2.376  0.1704E-01  0.1705E-01  0.7076E-03  0.7076E-03  0.8994E-03  0.8990E-03  0.7076E-03  0.7076E-03  0.2691E-04  0.2691E-04  0.2905E-04  0.2904E-04  0.1679E-04  0.1680E-04  0.2905E-04  0.2904E-04  0.1400E-04  0.1401E-04
     -2.322  0.1673E-01  0.1673E-01  0.7358E-03  0.7358E-03  0.1008E-02  0.1008E-02  0.7358E-03  0.7358E-03  0.3525E-04  0.3523E-04  0.3325E-04  0.3325E-04  0.2002E-04  0.2002E-04  0.3325E-04  0.3325E-04  0.1373E-04  0.1373E-04
     -2.269  0.1608E-01  0.1608E-01  0.7841E-03  0.7841E-03  0.1020E-02  0.1020E-02  0.7841E-03  0.7841E-03  0.4663E-04  0.4659E-04  0.3739E-04  0.3739E-04  0.2222E-04  0.2222E-04  0.3739E-04  0.3739E-04  0.1367E-04  0.1368E-04
     -2.215  0.1551E-01  0.1551E-01  0.8289E-03  0.8288E-03  0.1070E-02  0.1070E-02  0.8289E-03  0.8288E-03  0.5252E-04  0.5249E-04  0.4611E-04  0.4610E-04  0.2302E-04  0.2302E-04  0.4611E-04  0.4610E-04  0.1539E-04  0.1539E-04
     -2.161  0.1615E-01  0.1615E-01  0.9319E-03  0.9317E-03  0.1266E-02  0.1266E-02  0.9319E-03  0.9317E-03  0.5411E-04  0.5405E-04  0.6093E-04  0.6091E-04  0.2636E-04  0.2635E-04  0.6093E-04  0.6091E-04  0.2221E-04  0.2220E-04
     -2.108  0.1780E-01  0.1781E-01  0.1124E-02  0.1124E-02  0.1469E-02  0.1469E-02  0.1124E-02  0.1124E-02  0.5976E-04  0.5969E-04  0.7278E-04  0.7279E-04  0.3497E-04  0.3496E-04  0.7278E-04  0.7279E-04  0.3418E-04  0.3416E-04
     -2.054  0.1835E-01  0.1836E-01  0.1284E-02  0.1283E-02  0.1523E-02  0.1523E-02  0.1284E-02  0.1283E-02  0.7099E-04  0.7090E-04  0.7332E-04  0.7334E-04  0.4638E-04  0.4636E-04  0.7332E-04  0.7334E-04  0.4494E-04  0.4494E-04
     -2.000  0.1848E-01  0.1848E-01  0.1403E-02  0.1402E-02  0.1636E-02  0.1636E-02  0.1403E-02  0.1402E-02  0.9264E-04  0.9254E-04  0.7894E-04  0.7893E-04  0.5687E-04  0.5686E-04  0.7894E-04  0.7893E-04  0.4927E-04  0.4929E-04
     -1.947  0.1950E-01  0.1950E-01  0.1552E-02  0.1552E-02  0.1913E-02  0.1912E-02  0.1552E-02  0.1552E-02  0.1212E-03  0.1211E-03  0.1030E-03  0.1030E-03  0.6309E-04  0.6310E-04  0.1030E-03  0.1030E-03  0.5038E-04  0.5041E-04
     -1.893  0.2019E-01  0.2019E-01  0.1675E-02  0.1675E-02  0.2137E-02  0.2137E-02  0.1675E-02  0.1675E-02  0.1437E-03  0.1437E-03  0.1302E-03  0.1302E-03  0.6541E-04  0.6543E-04  0.1302E-03  0.1302E-03  0.5177E-04  0.5180E-04
     -1.839  0.1932E-01  0.1933E-01  0.1646E-02  0.1646E-02  0.2288E-02  0.2287E-02  0.1646E-02  0.1646E-02  0.1487E-03  0.1487E-03  0.1486E-03  0.1486E-03  0.6573E-04  0.6576E-04  0.1486E-03  0.1486E-03  0.5019E-04  0.5023E-04
     -1.785  0.1745E-01  0.1746E-01  0.1520E-02  0.1520E-02  0.2394E-02  0.2394E-02  0.1520E-02  0.1520E-02  0.1396E-03  0.1396E-03  0.1611E-03  0.1611E-03  0.6332E-04  0.6335E-04  0.1611E-03  0.1611E-03  0.4794E-04  0.4798E-04
     -1.732  0.1613E-01  0.1614E-01  0.1504E-02  0.1504E-02  0.2419E-02  0.2419E-02  0.1504E-02  0.1504E-02  0.1451E-03  0.1450E-03  0.1723E-03  0.1724E-03  0.6148E-04  0.6150E-04  0.1723E-03  0.1724E-03  0.5071E-04  0.5074E-04
     -1.678  0.1602E-01  0.1602E-01  0.1642E-02  0.1642E-02  0.2570E-02  0.2569E-02  0.1642E-02  0.1642E-02  0.1778E-03  0.1776E-03  0.1854E-03  0.1854E-03  0.7099E-04  0.7096E-04  0.1854E-03  0.1854E-03  0.5834E-04  0.5838E-04
     -1.624  0.1729E-01  0.1729E-01  0.1954E-02  0.1953E-02  0.2970E-02  0.2969E-02  0.1954E-02  0.1953E-02  0.2301E-03  0.2299E-03  0.2030E-03  0.2030E-03  0.9966E-04  0.9958E-04  0.2030E-03  0.2030E-03  0.7748E-04  0.7749E-04
     -1.571  0.1956E-01  0.1956E-01  0.2412E-02  0.2411E-02  0.3444E-02  0.3442E-02  0.2412E-02  0.2411E-02  0.2774E-03  0.2773E-03  0.2383E-03  0.2382E-03  0.1320E-03  0.1320E-03  0.2383E-03  0.2382E-03  0.1112E-03  0.1112E-03
     -1.517  0.2098E-01  0.2099E-01  0.2732E-02  0.2732E-02  0.3862E-02  0.3861E-02  0.2732E-02  0.2732E-02  0.2929E-03  0.2928E-03  0.2928E-03  0.2927E-03  0.1448E-03  0.1448E-03  0.2928E-03  0.2927E-03  0.1392E-03  0.1393E-03
     -1.463  0.2068E-01  0.2069E-01  0.2796E-02  0.2797E-02  0.4258E-02  0.4256E-02  0.2796E-02  0.2797E-02  0.2964E-03  0.2964E-03  0.3409E-03  0.3409E-03  0.1423E-03  0.1423E-03  0.3409E-03  0.3409E-03  0.1477E-03  0.1478E-03
     -1.410  0.1935E-01  0.1936E-01  0.2739E-02  0.2740E-02  0.4556E-02  0.4555E-02  0.2739E-02  0.2740E-02  0.3120E-03  0.3120E-03  0.3655E-03  0.3656E-03  0.1384E-03  0.1385E-03  0.3655E-03  0.3656E-03  0.1451E-03  0.1453E-03
     -1.356  0.1766E-01  0.1767E-01  0.2641E-02  0.2642E-02  0.4555E-02  0.4556E-02  0.2641E-02  0.2642E-02  0.3407E-03  0.3407E-03  0.3808E-03  0.3809E-03  0.1291E-03  0.1291E-03  0.3808E-03  0.3809E-03  0.1355E-03  0.1356E-03
     -1.302  0.1651E-01  0.1652E-01  0.2622E-02  0.2623E-02  0.4412E-02  0.4412E-02  0.2622E-02  0.2623E-02  0.3882E-03  0.3882E-03  0.4158E-03  0.4158E-03  0.1152E-03  0.1152E-03  0.4158E-03  0.4158E-03  0.1251E-03  0.1252E-03
     -1.249  0.1617E-01  0.1618E-01  0.2723E-02  0.2723E-02  0.4536E-02  0.4535E-02  0.2723E-02  0.2723E-02  0.4474E-03  0.4474E-03  0.4707E-03  0.4706E-03  0.1143E-03  0.1142E-03  0.4707E-03  0.4706E-03  0.1234E-03  0.1235E-03
     -1.195  0.1550E-01  0.1550E-01  0.2717E-02  0.2718E-02  0.4934E-02  0.4933E-02  0.2717E-02  0.2718E-02  0.4876E-03  0.4876E-03  0.5254E-03  0.5253E-03  0.1261E-03  0.1260E-03  0.5254E-03  0.5253E-03  0.1195E-03  0.1196E-03
     -1.141  0.1488E-01  0.1488E-01  0.2721E-02  0.2721E-02  0.5124E-02  0.5125E-02  0.2721E-02  0.2721E-02  0.5397E-03  0.5396E-03  0.5746E-03  0.5747E-03  0.1409E-03  0.1408E-03  0.5746E-03  0.5747E-03  0.1161E-03  0.1162E-03
     -1.087  0.1537E-01  0.1537E-01  0.3040E-02  0.3039E-02  0.4864E-02  0.4866E-02  0.3040E-02  0.3039E-02  0.6330E-03  0.6328E-03  0.6190E-03  0.6190E-03  0.1559E-03  0.1559E-03  0.6190E-03  0.6190E-03  0.1371E-03  0.1371E-03