  16  16   1   0
  0.1184966E+02  0.3558594E-09  0.3558594E-09  0.1497164E-08  0.5000000E-15
  1.000000000000000E-004
  CAR 
 unknown system                          
     19.86396855     -2.73408700  301     10.63656618      1.00000000
     -2.734  0.0000E+00  0.0000E+00  0.0000E+00  0.0000E+00
     -2.659  0.0000E+00  0.0000E+00  0.0000E+00  0.0000E+00
     -2.583  0.0000E+00  0.0000E+00  0.0000E+00  0.0000E+00
     -2.508  0.0000E+00  0.0000E+00  0.0000E+00  0.0000E+00
     -2.433  0.0000E+00  0.0000E+00  0.0000E+00  0.0000E+00
     -2.357  0.0000E+00  0.0000E+00  0.0000E+00  0.0000E+00
     -2.282  0.0000E+00  0.0000E+00  0.0000E+00  0.0000E+00
     -2.207  0.0000E+00  0.0000E+00  0.0000E+00  0.0000E+00
     -2.131  0.5373E-05  0.0000E+00  0.4047E-06  0.0000E+00
     -2.056  0.5351E-04  0.2130E-04  0.4435E-05  0.1604E-05
     -1.981  0.2811E-03  0.1018E-03  0.2561E-04  0.9276E-05
     -1.905  0.1238E-02  0.4507E-03  0.1189E-03  0.4322E-04
     -1.830  0.5397E-02  0.2005E-02  0.5254E-03  0.1943E-03
     -1.755  0.2169E-01  0.8648E-02  0.2159E-02  0.8457E-03
     -1.680  0.6885E-01  0.3259E-01  0.7345E-02  0.3300E-02
     -1.604  0.1538E+00  0.9340E-01  0.1893E-01  0.1034E-01
     -1.529  0.2311E+00  0.1832E+00  0.3634E-01  0.2414E-01
     -1.454  0.2701E+00  0.2458E+00  0.5668E-01  0.4265E-01
     -1.378  0.3524E+00  0.2871E+00  0.8323E-01  0.6428E-01
     -1.303  0.4629E+00  0.3932E+00  0.1181E+00  0.9389E-01
     -1.228  0.4337E+00  0.4703E+00  0.1508E+00  0.1293E+00
     -1.152  0.3904E+00  0.4011E+00  0.1802E+00  0.1595E+00
     -1.077  0.5203E+00  0.4097E+00  0.2194E+00  0.1904E+00
     -1.002  0.6089E+00  0.5640E+00  0.2653E+00  0.2329E+00
     -0.926  0.5686E+00  0.6162E+00  0.3082E+00  0.2793E+00
     -0.851  0.5694E+00  0.5735E+00  0.3511E+00  0.3226E+00
     -0.776  0.6432E+00  0.5922E+00  0.3996E+00  0.3672E+00
     -0.700  0.6381E+00  0.6665E+00  0.4476E+00  0.4174E+00
     -0.625  0.5500E+00  0.6286E+00  0.4891E+00  0.4648E+00
     -0.550  0.6526E+00  0.5645E+00  0.5383E+00  0.5074E+00
     -0.474  0.8362E+00  0.7136E+00  0.6013E+00  0.5612E+00
     -0.399  0.8315E+00  0.8719E+00  0.6640E+00  0.6269E+00
     -0.324  0.8105E+00  0.8425E+00  0.7251E+00  0.6904E+00
     -0.248  0.9171E+00  0.8583E+00  0.7942E+00  0.7551E+00
     -0.173  0.8486E+00  0.9312E+00  0.8582E+00  0.8252E+00
     -0.098  0.6479E+00  0.7439E+00  0.9071E+00  0.8813E+00
     -0.022  0.7219E+00  0.6286E+00  0.9615E+00  0.9287E+00
      0.053  0.9473E+00  0.8212E+00  0.1033E+01  0.9906E+00
      0.128  0.1096E+01  0.1069E+01  0.1115E+01  0.1071E+01
      0.204  0.1089E+01  0.1150E+01  0.1198E+01  0.1158E+01
      0.279  0.1086E+01  0.1073E+01  0.1279E+01  0.1239E+01
      0.354  0.1137E+01  0.1137E+01  0.1365E+01  0.1324E+01
      0.430  0.9880E+00  0.1105E+01  0.1440E+01  0.1408E+01
      0.505  0.9241E+00  0.8842E+00  0.1509E+01  0.1474E+01
      0.580  0.1085E+01  0.9932E+00  0.1591E+01  0.1549E+01
      0.656  0.1193E+01  0.1219E+01  0.1681E+01  0.1641E+01
      0.731  0.1280E+01  0.1282E+01  0.1777E+01  0.1738E+01
      0.806  0.1347E+01  0.1353E+01  0.1879E+01  0.1840E+01
      0.882  0.1241E+01  0.1284E+01  0.1972E+01  0.1937E+01
      0.957  0.1140E+01  0.1131E+01  0.2058E+01  0.2022E+01
      1.032  0.1255E+01  0.1187E+01  0.2153E+01  0.2111E+01
      1.108  0.1452E+01  0.1403E+01  0.2262E+01  0.2217E+01
      1.183  0.1415E+01  0.1499E+01  0.2369E+01  0.2330E+01
      1.258  0.1207E+01  0.1272E+01  0.2460E+01  0.2426E+01
      1.334  0.1129E+01  0.1160E+01  0.2545E+01  0.2514E+01
      1.409  0.9509E+00  0.1025E+01  0.2617E+01  0.2591E+01
      1.484  0.8854E+00  0.8426E+00  0.2684E+01  0.2654E+01
      1.560  0.1055E+01  0.9575E+00  0.2763E+01  0.2727E+01
      1.635  0.1355E+01  0.1256E+01  0.2865E+01  0.2821E+01
      1.710  0.1468E+01  0.1465E+01  0.2976E+01  0.2932E+01
      1.786  0.1269E+01  0.1266E+01  0.3072E+01  0.3027E+01
      1.861  0.1224E+01  0.1159E+01  0.3164E+01  0.3115E+01
      1.936  0.1195E+01  0.1173E+01  0.3254E+01  0.3203E+01
      2.012  0.1256E+01  0.1117E+01  0.3349E+01  0.3287E+01
      2.087  0.1538E+01  0.1255E+01  0.3465E+01  0.3382E+01
      2.162  0.1661E+01  0.1559E+01  0.3590E+01  0.3499E+01
      2.237  0.1404E+01  0.1589E+01  0.3696E+01  0.3619E+01
      2.313  0.1278E+01  0.1301E+01  0.3792E+01  0.3717E+01
      2.388  0.1251E+01  0.1296E+01  0.3886E+01  0.3815E+01
      2.463  0.1249E+01  0.1363E+01  0.3980E+01  0.3918E+01
      2.539  0.1378E+01  0.1273E+01  0.4084E+01  0.4014E+01
      2.614  0.1469E+01  0.1287E+01  0.4195E+01  0.4111E+01
      2.689  0.1548E+01  0.1364E+01  0.4312E+01  0.4214E+01
      2.765  0.1597E+01  0.1557E+01  0.4432E+01  0.4331E+01
      2.840  0.1540E+01  0.1647E+01  0.4548E+01  0.4455E+01
      2.915  0.1591E+01  0.1582E+01  0.4668E+01  0.4574E+01
      2.991  0.1864E+01  0.1610E+01  0.4809E+01  0.4696E+01
      3.066  0.1928E+01  0.1871E+01  0.4954E+01  0.4837E+01
      3.141  0.1836E+01  0.1870E+01  0.5092E+01  0.4978E+01
      3.217  0.1766E+01  0.1726E+01  0.5226E+01  0.5108E+01
      3.292  0.1653E+01  0.1666E+01  0.5350E+01  0.5233E+01
      3.367  0.1579E+01  0.1683E+01  0.5469E+01  0.5360E+01
      3.443  0.1583E+01  0.1606E+01  0.5589E+01  0.5481E+01
      3.518  0.1537E+01  0.1514E+01  0.5704E+01  0.5595E+01
      3.593  0.1660E+01  0.1523E+01  0.5830E+01  0.5710E+01
      3.669  0.1958E+01  0.1668E+01  0.5977E+01  0.5836E+01
      3.744  0.1826E+01  0.1850E+01  0.6115E+01  0.5976E+01
      3.819  0.1553E+01  0.1782E+01  0.6232E+01  0.6110E+01
      3.895  0.1530E+01  0.1544E+01  0.6347E+01  0.6226E+01
      3.970  0.1844E+01  0.1348E+01  0.6486E+01  0.6328E+01
      4.045  0.2160E+01  0.1539E+01  0.6649E+01  0.6444E+01
      4.121  0.2163E+01  0.1996E+01  0.6812E+01  0.6594E+01
      4.196  0.2077E+01  0.2121E+01  0.6969E+01  0.6754E+01
      4.271  0.1951E+01  0.2062E+01  0.7116E+01  0.6910E+01
      4.347  0.1725E+01  0.2053E+01  0.7246E+01  0.7064E+01
      4.422  0.1620E+01  0.1834E+01  0.7368E+01  0.7203E+01
      4.497  0.1729E+01  0.1507E+01  0.7498E+01  0.7316E+01
      4.573  0.1783E+01  0.1598E+01  0.7633E+01  0.7437E+01
      4.648  0.1815E+01  0.1787E+01  0.7769E+01  0.7571E+01
      4.723  0.1826E+01  0.1823E+01  0.7907E+01  0.7709E+01
      4.799  0.2019E+01  0.1768E+01  0.8059E+01  0.7842E+01
      4.874  0.2343E+01  0.1833E+01  0.8236E+01  0.7980E+01
      4.949  0.2491E+01  0.2082E+01  0.8424E+01  0.8137E+01
      5.025  0.2342E+01  0.2286E+01  0.8600E+01  0.8310E+01
      5.100  0.2319E+01  0.2199E+01  0.8775E+01  0.8475E+01
      5.175  0.2592E+01  0.2145E+01  0.8970E+01  0.8637E+01
      5.251  0.2716E+01  0.2351E+01  0.9175E+01  0.8814E+01
      5.326  0.2362E+01  0.2646E+01  0.9353E+01  0.9014E+01
      5.401  0.2158E+01  0.2582E+01  0.9516E+01  0.9208E+01
      5.477  0.2289E+01  0.2281E+01  0.9688E+01  0.9380E+01
      5.552  0.2351E+01  0.2192E+01  0.9866E+01  0.9545E+01
      5.627  0.2283E+01  0.2157E+01  0.1004E+02  0.9708E+01
      5.703  0.2255E+01  0.2043E+01  0.1021E+02  0.9862E+01
      5.778  0.2459E+01  0.2087E+01  0.1039E+02  0.1002E+02
      5.853  0.2593E+01  0.2169E+01  0.1059E+02  0.1018E+02
      5.929  0.2630E+01  0.2243E+01  0.1079E+02  0.1035E+02
      6.004  0.2729E+01  0.2337E+01  0.1099E+02  0.1053E+02
      6.079  0.2754E+01  0.2313E+01  0.1120E+02  0.1070E+02
      6.154  0.2860E+01  0.2535E+01  0.1142E+02  0.1089E+02
      6.230  0.2864E+01  0.2608E+01  0.1163E+02  0.1109E+02
      6.305  0.2964E+01  0.2625E+01  0.1185E+02  0.1129E+02
      6.380  0.3140E+01  0.2741E+01  0.1209E+02  0.1149E+02
      6.456  0.3203E+01  0.2767E+01  0.1233E+02  0.1170E+02
      6.531  0.3262E+01  0.2776E+01  0.1258E+02  0.1191E+02
      6.606  0.3582E+01  0.2833E+01  0.1285E+02  0.1213E+02
      6.682  0.3866E+01  0.2895E+01  0.1314E+02  0.1234E+02
      6.757  0.3863E+01  0.3046E+01  0.1343E+02  0.1257E+02
      6.832  0.4046E+01  0.2974E+01  0.1374E+02  0.1280E+02
      6.908  0.4391E+01  0.2848E+01  0.1407E+02  0.1301E+02
      6.983  0.4198E+01  0.3387E+01  0.1438E+02  0.1327E+02
      7.058  0.3767E+01  0.3698E+01  0.1467E+02  0.1355E+02
      7.134  0.3549E+01  0.3472E+01  0.1494E+02  0.1381E+02
      7.209  0.3800E+01  0.3225E+01  0.1522E+02  0.1405E+02
      7.284  0.4074E+01  0.3178E+01  0.1553E+02  0.1429E+02
      7.360  0.3933E+01  0.3366E+01  0.1583E+02  0.1455E+02
      7.435  0.3647E+01  0.3601E+01  0.1610E+02  0.1482E+02
      7.510  0.3466E+01  0.3629E+01  0.1636E+02  0.1509E+02
      7.586  0.3593E+01  0.3764E+01  0.1663E+02  0.1537E+02
      7.661  0.3792E+01  0.3919E+01  0.1692E+02  0.1567E+02
      7.736  0.3806E+01  0.3747E+01  0.1721E+02  0.1595E+02
      7.812  0.3904E+01  0.3407E+01  0.1750E+02  0.1621E+02
      7.887  0.4083E+01  0.3167E+01  0.1781E+02  0.1645E+02
      7.962  0.3975E+01  0.3275E+01  0.1811E+02  0.1669E+02
      8.038  0.4475E+01  0.3434E+01  0.1844E+02  0.1695E+02
      8.113  0.5424E+01  0.3598E+01  0.1885E+02  0.1722E+02
      8.188  0.5837E+01  0.3802E+01  0.1929E+02  0.1751E+02
      8.264  0.6190E+01  0.3741E+01  0.1976E+02  0.1779E+02
      8.339  0.6766E+01  0.3580E+01  0.2027E+02  0.1806E+02
      8.414  0.7033E+01  0.3709E+01  0.2080E+02  0.1834E+02
      8.490  0.6875E+01  0.4101E+01  0.2132E+02  0.1865E+02
      8.565  0.6423E+01  0.4519E+01  0.2180E+02  0.1899E+02
      8.640  0.5656E+01  0.4815E+01  0.2223E+02  0.1936E+02
      8.716  0.4894E+01  0.5343E+01  0.2260E+02  0.1976E+02
      8.791  0.4694E+01  0.5836E+01  0.2295E+02  0.2020E+02
      8.866  0.5116E+01  0.5849E+01  0.2334E+02  0.2064E+02
      8.942  0.5455E+01  0.5809E+01  0.2375E+02  0.2108E+02
      9.017  0.5444E+01  0.5394E+01  0.2416E+02  0.2148E+02
      9.092  0.4930E+01  0.4768E+01  0.2453E+02  0.2184E+02
      9.168  0.4101E+01  0.4372E+01  0.2484E+02  0.2217E+02
      9.243  0.3798E+01  0.4274E+01  0.2513E+02  0.2249E+02
      9.318  0.3866E+01  0.4251E+01  0.2542E+02  0.2281E+02
      9.394  0.3812E+01  0.4062E+01  0.2571E+02  0.2312E+02
      9.469  0.3796E+01  0.4184E+01  0.2599E+02  0.2344E+02
      9.544  0.3595E+01  0.4623E+01  0.2626E+02  0.2379E+02
      9.620  0.3201E+01  0.4955E+01  0.2650E+02  0.2416E+02
      9.695  0.2937E+01  0.4517E+01  0.2673E+02  0.2450E+02
      9.770  0.2994E+01  0.3677E+01  0.2695E+02  0.2478E+02
      9.845  0.3309E+01  0.3150E+01  0.2720E+02  0.2501E+02
      9.921  0.3978E+01  0.2822E+01  0.2750E+02  0.2523E+02
      9.996  0.4290E+01  0.2964E+01  0.2782E+02  0.2545E+02
     10.071  0.3917E+01  0.3047E+01  0.2812E+02  0.2568E+02
     10.147  0.3672E+01  0.2984E+01  0.2840E+02  0.2590E+02
     10.222  0.4947E+01  0.3178E+01  0.2877E+02  0.2614E+02
     10.297  0.8293E+01  0.3102E+01  0.2939E+02  0.2638E+02
     10.373  0.1173E+02  0.2869E+01  0.3028E+02  0.2659E+02
     10.448  0.1170E+02  0.2721E+01  0.3116E+02  0.2680E+02
     10.523  0.9445E+01  0.2692E+01  0.3187E+02  0.2700E+02
     10.599  0.7552E+01  0.2615E+01  0.3244E+02  0.2720E+02
     10.674  0.6799E+01  0.2749E+01  0.3295E+02  0.2741E+02
     10.749  0.6448E+01  0.3144E+01  0.3344E+02  0.2764E+02
     10.825  0.5619E+01  0.3255E+01  0.3386E+02  0.2789E+02
     10.900  0.4267E+01  0.3133E+01  0.3418E+02  0.2813E+02
     10.975  0.3189E+01  0.3147E+01  0.3443E+02  0.2836E+02
     11.051  0.2908E+01  0.3284E+01  0.3464E+02  0.2861E+02
     11.126  0.2812E+01  0.3194E+01  0.3486E+02  0.2885E+02
     11.201  0.2494E+01  0.2904E+01  0.3504E+02  0.2907E+02
     11.277  0.2373E+01  0.2969E+01  0.3522E+02  0.2929E+02
     11.352  0.2287E+01  0.3732E+01  0.3540E+02  0.2958E+02
     11.427  0.2142E+01  0.4396E+01  0.3556E+02  0.2991E+02
     11.503  0.1935E+01  0.5370E+01  0.3570E+02  0.3031E+02
     11.578  0.1744E+01  0.6962E+01  0.3584E+02  0.3084E+02
     11.653  0.1706E+01  0.8043E+01  0.3596E+02  0.3144E+02
     11.729  0.1876E+01  0.8532E+01  0.3611E+02  0.3208E+02
     11.804  0.2248E+01  0.9688E+01  0.3627E+02  0.3281E+02
     11.879  0.2642E+01  0.1115E+02  0.3647E+02  0.3365E+02
     11.955  0.2689E+01  0.1095E+02  0.3668E+02  0.3448E+02
     12.030  0.2552E+01  0.8566E+01  0.3687E+02  0.3513E+02
     12.105  0.2930E+01  0.6223E+01  0.3709E+02  0.3560E+02
     12.181  0.3387E+01  0.4427E+01  0.3735E+02  0.3593E+02
     12.256  0.3448E+01  0.3126E+01  0.3760E+02  0.3617E+02
     12.331  0.3428E+01  0.2806E+01  0.3786E+02  0.3638E+02
     12.407  0.3273E+01  0.2959E+01  0.3811E+02  0.3660E+02
     12.482  0.3417E+01  0.3196E+01  0.3837E+02  0.3684E+02
     12.557  0.3687E+01  0.3419E+01  0.3865E+02  0.3710E+02
     12.633  0.3754E+01  0.3263E+01  0.3893E+02  0.3735E+02
     12.708  0.4246E+01  0.2916E+01  0.3925E+02  0.3757E+02
     12.783  0.4894E+01  0.2917E+01  0.3962E+02  0.3779E+02
     12.859  0.5268E+01  0.3227E+01  0.4001E+02  0.3803E+02
     12.934  0.4752E+01  0.3628E+01  0.4037E+02  0.3830E+02
     13.009  0.4084E+01  0.3812E+01  0.4068E+02  0.3859E+02
     13.085  0.3906E+01  0.3776E+01  0.4097E+02  0.3887E+02
     13.160  0.3871E+01  0.3767E+01  0.4127E+02  0.3916E+02
     13.235  0.3897E+01  0.3958E+01  0.4156E+02  0.3946E+02
     13.311  0.3911E+01  0.4248E+01  0.4186E+02  0.3978E+02
     13.386  0.3776E+01  0.4334E+01  0.4214E+02  0.4010E+02
     13.461  0.3601E+01  0.4053E+01  0.4241E+02  0.4041E+02
     13.537  0.3205E+01  0.3869E+01  0.4265E+02  0.4070E+02
     13.612  0.2910E+01  0.4287E+01  0.4287E+02  0.4102E+02
     13.687  0.2691E+01  0.4710E+01  0.4308E+02  0.4138E+02
     13.762  0.2479E+01  0.4726E+01  0.4326E+02  0.4173E+02
     13.838  0.2380E+01  0.4589E+01  0.4344E+02  0.4208E+02
     13.913  0.2599E+01  0.4257E+01  0.4364E+02  0.4240E+02
     13.988  0.2788E+01  0.3724E+01  0.4385E+02  0.4268E+02
     14.064  0.2849E+01  0.3509E+01  0.4406E+02  0.4295E+02
     14.139  0.2976E+01  0.3329E+01  0.4429E+02  0.4320E+02
     14.214  0.2843E+01  0.2942E+01  0.4450E+02  0.4342E+02
     14.290  0.2592E+01  0.3000E+01  0.4470E+02  0.4365E+02
     14.365  0.2775E+01  0.3305E+01  0.4491E+02  0.4390E+02
     14.440  0.2888E+01  0.3177E+01  0.4512E+02  0.4413E+02
     14.516  0.2983E+01  0.2741E+01  0.4535E+02  0.4434E+02
     14.591  0.3427E+01  0.2677E+01  0.4561E+02  0.4454E+02
     14.666  0.3867E+01  0.2865E+01  0.4590E+02  0.4476E+02
     14.742  0.4222E+01  0.2771E+01  0.4622E+02  0.4497E+02
     14.817  0.4388E+01  0.2939E+01  0.4655E+02  0.4519E+02
     14.892  0.4257E+01  0.3446E+01  0.4687E+02  0.4545E+02
     14.968  0.4232E+01  0.4098E+01  0.4719E+02  0.4576E+02
     15.043  0.4419E+01  0.4455E+01  0.4752E+02  0.4609E+02
     15.118  0.4394E+01  0.4441E+01  0.4785E+02  0.4643E+02
     15.194  0.4146E+01  0.4560E+01  0.4816E+02  0.4677E+02
     15.269  0.3953E+01  0.4524E+01  0.4846E+02  0.4711E+02
     15.344  0.3476E+01  0.4371E+01  0.4872E+02  0.4744E+02
     15.420  0.3121E+01  0.4374E+01  0.4896E+02  0.4777E+02
     15.495  0.3096E+01  0.4196E+01  0.4919E+02  0.4809E+02
     15.570  0.3237E+01  0.3937E+01  0.4944E+02  0.4839E+02
     15.646  0.3352E+01  0.3526E+01  0.4969E+02  0.4865E+02
     15.721  0.3306E+01  0.3190E+01  0.4994E+02  0.4889E+02
     15.796  0.3122E+01  0.3371E+01  0.5017E+02  0.4915E+02
     15.872  0.2996E+01  0.3595E+01  0.5040E+02  0.4942E+02
     15.947  0.3121E+01  0.3595E+01  0.5064E+02  0.4969E+02
     16.022  0.3103E+01  0.3312E+01  0.5087E+02  0.4994E+02
     16.098  0.2952E+01  0.2994E+01  0.5109E+02  0.5016E+02
     16.173  0.2817E+01  0.3089E+01  0.5130E+02  0.5040E+02
     16.248  0.2832E+01  0.3283E+01  0.5152E+02  0.5064E+02
     16.324  0.2720E+01  0.3330E+01  0.5172E+02  0.5090E+02
     16.399  0.2470E+01  0.3272E+01  0.5191E+02  0.5114E+02
     16.474  0.2378E+01  0.3290E+01  0.5209E+02  0.5139E+02
     16.550  0.2267E+01  0.3210E+01  0.5226E+02  0.5163E+02
     16.625  0.2378E+01  0.2916E+01  0.5244E+02  0.5185E+02
     16.700  0.2684E+01  0.2521E+01  0.5264E+02  0.5204E+02
     16.776  0.3110E+01  0.2225E+01  0.5288E+02  0.5221E+02
     16.851  0.3260E+01  0.2109E+01  0.5312E+02  0.5237E+02
     16.926  0.3028E+01  0.2146E+01  0.5335E+02  0.5253E+02
     17.002  0.3045E+01  0.2474E+01  0.5358E+02  0.5272E+02
     17.077  0.3294E+01  0.2737E+01  0.5383E+02  0.5292E+02
     17.152  0.3255E+01  0.3095E+01  0.5407E+02  0.5316E+02
     17.228  0.2742E+01  0.3443E+01  0.5428E+02  0.5342E+02
     17.303  0.2445E+01  0.3298E+01  0.5446E+02  0.5367E+02
     17.378  0.2606E+01  0.3143E+01  0.5466E+02  0.5390E+02
     17.454  0.2616E+01  0.2919E+01  0.5486E+02  0.5412E+02
     17.529  0.2528E+01  0.2764E+01  0.5505E+02  0.5433E+02
     17.604  0.2338E+01  0.2621E+01  0.5522E+02  0.5453E+02
     17.679  0.1719E+01  0.2540E+01  0.5535E+02  0.5472E+02
     17.755  0.1175E+01  0.2641E+01  0.5544E+02  0.5492E+02
     17.830  0.1086E+01  0.2399E+01  0.5552E+02  0.5510E+02
     17.905  0.1307E+01  0.1858E+01  0.5562E+02  0.5524E+02
     17.981  0.1196E+01  0.1581E+01  0.5571E+02  0.5536E+02
     18.056  0.8857E+00  0.1582E+01  0.5578E+02  0.5548E+02
     18.131  0.7255E+00  0.1533E+01  0.5584E+02  0.5559E+02
     18.207  0.6408E+00  0.1253E+01  0.5588E+02  0.5569E+02
     18.282  0.5084E+00  0.1097E+01  0.5592E+02  0.5577E+02
     18.357  0.2779E+00  0.1006E+01  0.5594E+02  0.5585E+02
     18.433  0.1140E+00  0.7535E+00  0.5595E+02  0.5590E+02
     18.508  0.8073E-01  0.4202E+00  0.5596E+02  0.5594E+02
     18.583  0.1367E+00  0.1772E+00  0.5597E+02  0.5595E+02
     18.659  0.1580E+00  0.9116E-01  0.5598E+02  0.5596E+02
     18.734  0.1257E+00  0.1399E+00  0.5599E+02  0.5597E+02
     18.809  0.8920E-01  0.2003E+00  0.5600E+02  0.5598E+02
     18.885  0.3753E-01  0.1523E+00  0.5600E+02  0.5599E+02
     18.960  0.1023E-01  0.6471E-01  0.5600E+02  0.5600E+02
     19.035  0.2170E-02  0.1804E-01  0.5600E+02  0.5600E+02
     19.111  0.4872E-03  0.4244E-02  0.5600E+02  0.5600E+02
     19.186  0.0000E+00  0.6775E-03  0.5600E+02  0.5600E+02
     19.261  0.0000E+00  0.0000E+00  0.5600E+02  0.5600E+02
     19.337  0.0000E+00  0.0000E+00  0.5600E+02  0.5600E+02
     19.412  0.0000E+00  0.0000E+00  0.5600E+02  0.5600E+02
     19.487  0.0000E+00  0.0000E+00  0.5600E+02  0.5600E+02
     19.563  0.0000E+00  0.0000E+00  0.5600E+02  0.5600E+02
     19.638  0.0000E+00  0.0000E+00  0.5600E+02  0.5600E+02
     19.713  0.0000E+00  0.0000E+00  0.5600E+02  0.5600E+02
     19.789  0.0000E+00  0.0000E+00  0.5600E+02  0.5600E+02
     19.864  0.0000E+00  0.0000E+00  0.5600E+02  0.5600E+02
     19.86396855     -2.73408700  301     10.63656618      1.00000000
     -2.734  0.0000E+00  0.0000E+00  0.0000E+00  0.0000E+00  0.0000E+00  0.0000E+00  0.0000E+00  0.0000E+00  0.0000E+00  0.0000E+00  0.0000E+00  0.0000E+00  0.0000E+00  0.0000E+00  0.0000E+00  0.0000E+00  0.0000E+00  0.0000E+00
     -2.659  0.0000E+00  0.0000E+00  0.0000E+00  0.0000E+00  0.0000E+00  0.0000E+00  0.0000E+00  0.0000E+00  0.0000E+00  0.0000E+00  0.0000E+00  0.0000E+00  0.0000E+00  0.0000E+00  0.0000E+00  0.0000E+00  0.0000E+00  0.0000E+00
     -2.583  0.0000E+00  0.0000E+00  0.0000E+00  0.0000E+00  0.0000E+00  0.0000E+00  0.0000E+00  0.0000E+00  0.0000E+00  0.0000E+00  0.0000E+00  0.0000E+00  0.0000E+00  0.0000E+00  0.0000E+00  0.0000E+00  0.0000E+00  0.0000E+00
     -2.508  0.0000E+00  0.0000E+00  0.0000E+00  0.0000E+00  0.0000E+00  0.0000E+00  0.0000E+00  0.0000E+00  0.0000E+00  0.0000E+00  0.0000E+00  0.0000E+00  0.0000E+00  0.0000E+00  0.0000E+00  0.0000E+00  0.0000E+00  0.0000E+00
     -2.433  0.0000E+00  0.0000E+00  0.0000E+00  0.0000E+00  0.0000E+00  0.0000E+00  0.0000E+00  0.0000E+00  0.0000E+00  0.0000E+00  0.0000E+00  0.0000E+00  0.0000E+00  0.0000E+00  0.0000E+00  0.0000E+00  0.0000E+00  0.0000E+00
     -2.357  0.0000E+00  0.0000E+00  0.0000E+00  0.0000E+00  0.0000E+00  0.0000E+00  0.0000E+00  0.0000E+00  0.0000E+00  0.0000E+00  0.0000E+00  0.0000E+00  0.0000E+00  0.0000E+00  0.0000E+00  0.0000E+00  0.0000E+00  0.0000E+00
     -2.282  0.0000E+00  0.0000E+00  0.0000E+00  0.0000E+00  0.0000E+00  0.0000E+00  0.0000E+00  0.0000E+00  0.0000E+00  0.0000E+00  0.0000E+00  0.0000E+00  0.0000E+00  0.0000E+00  0.0000E+00  0.0000E+00  0.0000E+00  0.0000E+00
     -2.207  0.0000E+00  0.0000E+00  0.0000E+00  0.0000E+00  0.0000E+00  0.0000E+00  0.0000E+00  0.0000E+00  0.0000E+00  0.0000E+00  0.0000E+00  0.0000E+00  0.0000E+00  0.0000E+00  0.0000E+00  0.0000E+00  0.0000E+00  0.0000E+00
     -2.131  0.1898E-06  0.0000E+00  0.2631E-21  0.0000E+00  0.4171E-09  0.0000E+00  0.2631E-21  0.0000E+00  0.1029E-17  0.0000E+00  0.4797E-17  0.0000E+00  0.1764E-10  0.0000E+00  0.4797E-17  0.0000E+00  0.8851E-15  0.0000E+00
     -2.056  0.1874E-05  0.7074E-06  0.4171E-08  0.1462E-08  0.8949E-08  0.2400E-08  0.4171E-08  0.1462E-08  0.1664E-16  0.2905E-17  0.2288E-10  0.4698E-11  0.2002E-09  0.1820E-09  0.2288E-10  0.4698E-11  0.2024E-10  0.5933E-11
     -1.981  0.9799E-05  0.3364E-05  0.3235E-07  0.1133E-07  0.5962E-07  0.1671E-07  0.3235E-07  0.1133E-07  0.1437E-09  0.4920E-10  0.3350E-09  0.8879E-10  0.1064E-08  0.8783E-09  0.3350E-09  0.8879E-10  0.1127E-09  0.3303E-10
     -1.905  0.4314E-04  0.1488E-04  0.1467E-06  0.5148E-07  0.2683E-06  0.7577E-07  0.1467E-06  0.5148E-07  0.8035E-09  0.2754E-09  0.1706E-08  0.4654E-09  0.4646E-08  0.3872E-08  0.1706E-08  0.4654E-09  0.4651E-09  0.1366E-09
     -1.830  0.1880E-03  0.6620E-04  0.6580E-06  0.2326E-06  0.1188E-05  0.3396E-06  0.6580E-06  0.2326E-06  0.3313E-08  0.1138E-08  0.7324E-08  0.1985E-08  0.2079E-07  0.1739E-07  0.7324E-08  0.1985E-08  0.2492E-08  0.7389E-09
     -1.755  0.7542E-03  0.2853E-03  0.2958E-05  0.1065E-05  0.5128E-05  0.1536E-05  0.2958E-05  0.1065E-05  0.1703E-07  0.5654E-08  0.3501E-07  0.9534E-08  0.8585E-07  0.7555E-07  0.3501E-07  0.9534E-08  0.1196E-07  0.3575E-08
     -1.680  0.2387E-02  0.1073E-02  0.1118E-04  0.4488E-05  0.1856E-04  0.6367E-05  0.1118E-04  0.4488E-05  0.7043E-07  0.2564E-07  0.1409E-06  0.4224E-07  0.2792E-06  0.2864E-06  0.1409E-06  0.4224E-07  0.4366E-07  0.1485E-07
     -1.604  0.5303E-02  0.3063E-02  0.3213E-04  0.1584E-04  0.5029E-04  0.2194E-04  0.3213E-04  0.1584E-04  0.2540E-06  0.1038E-06  0.4649E-06  0.1642E-06  0.6571E-06  0.8317E-06  0.4649E-06  0.1642E-06  0.1274E-06  0.5171E-07
     -1.529  0.7901E-02  0.5968E-02  0.6451E-04  0.4048E-04  0.9510E-04  0.5460E-04  0.6451E-04  0.4048E-04  0.6494E-06  0.3402E-06  0.1103E-05  0.5059E-06  0.1140E-05  0.1676E-05  0.1103E-05  0.5059E-06  0.3250E-06  0.1402E-06
     -1.454  0.9106E-02  0.7926E-02  0.1068E-03  0.7395E-04  0.1474E-03  0.9586E-04  0.1068E-03  0.7395E-04  0.1271E-05  0.7757E-06  0.2051E-05  0.1100E-05  0.1943E-05  0.2472E-05  0.2051E-05  0.1100E-05  0.8944E-06  0.3656E-06
     -1.378  0.1168E-01  0.9107E-02  0.1872E-03  0.1234E-03  0.2525E-03  0.1534E-03  0.1872E-03  0.1234E-03  0.2694E-05  0.1515E-05  0.4148E-05  0.2056E-05  0.3617E-05  0.3622E-05  0.4148E-05  0.2056E-05  0.2052E-05  0.9898E-06
     -1.303  0.1516E-01  0.1227E-01  0.2831E-03  0.2147E-03  0.3904E-03  0.2710E-03  0.2831E-03  0.2147E-03  0.5204E-05  0.3275E-05  0.7720E-05  0.4324E-05  0.5155E-05  0.5749E-05  0.7720E-05  0.4324E-05  0.2983E-05  0.1979E-05
     -1.228  0.1404E-01  0.1452E-01  0.2966E-03  0.2874E-03  0.4238E-03  0.3771E-03  0.2966E-03  0.2874E-03  0.6976E-05  0.5604E-05  0.9992E-05  0.7309E-05  0.5289E-05  0.6949E-05  0.9992E-05  0.7309E-05  0.3000E-05  0.2450E-05
     -1.152  0.1235E-01  0.1221E-01  0.3249E-03  0.2813E-03  0.4793E-03  0.3767E-03  0.3249E-03  0.2813E-03  0.9588E-05  0.7060E-05  0.1349E-04  0.8913E-05  0.6806E-05  0.6533E-05  0.1349E-04  0.8913E-05  0.4151E-05  0.2478E-05
     -1.077  0.1612E-01  0.1215E-01  0.5164E-03  0.3587E-03  0.7111E-03  0.4725E-03  0.5164E-03  0.3587E-03  0.1588E-04  0.1074E-04  0.2285E-04  0.1349E-04  0.1208E-04  0.8914E-05  0.2285E-04  0.1349E-04  0.8909E-05  0.4265E-05
     -1.002  0.1868E-01  0.1645E-01  0.6962E-03  0.5699E-03  0.7943E-03  0.7014E-03  0.6962E-03  0.5699E-03  0.2030E-04  0.1678E-04  0.2880E-04  0.2168E-04  0.1756E-04  0.1547E-04  0.2880E-04  0.2168E-04  0.1572E-04  0.9031E-05
     -0.926  0.1721E-01  0.1776E-01  0.7301E-03  0.6975E-03  0.7448E-03  0.7663E-03  0.7301E-03  0.6975E-03  0.2345E-04  0.1980E-04  0.3177E-04  0.2502E-04  0.1944E-04  0.2085E-04  0.3177E-04  0.2502E-04  0.1844E-04  0.1393E-04
     -0.851  0.1689E-01  0.1627E-01  0.7463E-03  0.6982E-03  0.9483E-03  0.7981E-03  0.7463E-03  0.6982E-03  0.3296E-04  0.2405E-04  0.4441E-04  0.2934E-04  0.2038E-04  0.2100E-04  0.4441E-04  0.2934E-04  0.1614E-04  0.1412E-04
     -0.776  0.1876E-01  0.1643E-01  0.9051E-03  0.7511E-03  0.1163E-02  0.1008E-02  0.9051E-03  0.7511E-03  0.5100E-04  0.3601E-04  0.6138E-04  0.4335E-04  0.2398E-04  0.2084E-04  0.6138E-04  0.4335E-04  0.1754E-04  0.1250E-04
     -0.700  0.1841E-01  0.1818E-01  0.1010E-02  0.9441E-03  0.1071E-02  0.1143E-02  0.1010E-02  0.9441E-03  0.6142E-04  0.5348E-04  0.6718E-04  0.5932E-04  0.2495E-04  0.2456E-04  0.6718E-04  0.5932E-04  0.2151E-04  0.1525E-04
     -0.625  0.1557E-01  0.1694E-01  0.9265E-03  0.9674E-03  0.1011E-02  0.1069E-02  0.9265E-03  0.9674E-03  0.5125E-04  0.5525E-04  0.6648E-04  0.6169E-04  0.2581E-04  0.2499E-04  0.6648E-04  0.6169E-04  0.2670E-04  0.1828E-04
     -0.550  0.1797E-01  0.1484E-01  0.1198E-02  0.9266E-03  0.1338E-02  0.1093E-02  0.1198E-02  0.9266E-03  0.6110E-04  0.4677E-04  0.8903E-04  0.6195E-04  0.4162E-04  0.2835E-04  0.8903E-04  0.6195E-04  0.4594E-04  0.2497E-04
     -0.474  0.2257E-01  0.1821E-01  0.1646E-02  0.1311E-02  0.1780E-02  0.1456E-02  0.1646E-02  0.1311E-02  0.9614E-04  0.6790E-04  0.1165E-03  0.8462E-04  0.6806E-04  0.4871E-04  0.1165E-03  0.8462E-04  0.6610E-04  0.4273E-04
     -0.399  0.2207E-01  0.2182E-01  0.1660E-02  0.1657E-02  0.1958E-02  0.1930E-02  0.1660E-02  0.1657E-02  0.1205E-03  0.1008E-03  0.1184E-03  0.1086E-03  0.8161E-04  0.6981E-04  0.1184E-03  0.1086E-03  0.6268E-04  0.5324E-04
     -0.324  0.2110E-01  0.2072E-01  0.1693E-02  0.1621E-02  0.2014E-02  0.2047E-02  0.1693E-02  0.1621E-02  0.1413E-03  0.1195E-03  0.1413E-03  0.1178E-03  0.7933E-04  0.7132E-04  0.1413E-03  0.1178E-03  0.6194E-04  0.4833E-04
     -0.248  0.2341E-01  0.2067E-01  0.1991E-02  0.1756E-02  0.2403E-02  0.2146E-02  0.1991E-02  0.1756E-02  0.1684E-03  0.1393E-03  0.2029E-03  0.1509E-03  0.8116E-04  0.6978E-04  0.2029E-03  0.1509E-03  0.7498E-04  0.5373E-04
     -0.173  0.2128E-01  0.2195E-01  0.1779E-02  0.1922E-02  0.2559E-02  0.2560E-02  0.1779E-02  0.1922E-02  0.1611E-03  0.1599E-03  0.2157E-03  0.1987E-03  0.7611E-04  0.7205E-04  0.2157E-03  0.1987E-03  0.6219E-04  0.5750E-04
     -0.098  0.1580E-01  0.1717E-01  0.1443E-02  0.1525E-02  0.2033E-02  0.2262E-02  0.1443E-02  0.1525E-02  0.1481E-03  0.1441E-03  0.1941E-03  0.1820E-03  0.5935E-04  0.5706E-04  0.1941E-03  0.1820E-03  0.4988E-04  0.4065E-04
     -0.022  0.1701E-01  0.1404E-01  0.1914E-02  0.1462E-02  0.2001E-02  0.1832E-02  0.1914E-02  0.1462E-02  0.2148E-03  0.1547E-03  0.2378E-03  0.1789E-03  0.7414E-04  0.5107E-04  0.2378E-03  0.1789E-03  0.7742E-04  0.4181E-04
      0.053  0.2167E-01  0.1765E-01  0.2689E-02  0.2144E-02  0.2655E-02  0.2324E-02  0.2689E-02  0.2144E-02  0.3072E-03  0.2315E-03  0.2924E-03  0.2388E-03  0.1332E-03  0.8785E-04  0.2924E-03  0.2388E-03  0.1284E-03  0.7522E-04
      0.128  0.2422E-01  0.2214E-01  0.3077E-02  0.2872E-02  0.3605E-02  0.3331E-02  0.3077E-02  0.2872E-02  0.3225E-03  0.2980E-03  0.3379E-03  0.2965E-03  0.1864E-03  0.1458E-03  0.3379E-03  0.2965E-03  0.1725E-03  0.1201E-03
      0.204  0.2326E-01  0.2301E-01  0.2951E-02  0.3010E-02  0.4191E-02  0.4166E-02  0.2951E-02  0.3010E-02  0.2958E-03  0.2858E-03  0.3863E-03  0.3404E-03  0.1869E-03  0.1659E-03  0.3863E-03  0.3404E-03  0.1757E-03  0.1411E-03
      0.279  0.2265E-01  0.2084E-01  0.3162E-02  0.2872E-02  0.4029E-02  0.4075E-02  0.3162E-02  0.2872E-02  0.3737E-03  0.2974E-03  0.4372E-03  0.3720E-03  0.1782E-03  0.1471E-03  0.4372E-03  0.3720E-03  0.1795E-03  0.1322E-03
      0.354  0.2296E-01  0.2139E-01  0.3389E-02  0.3241E-02  0.4409E-02  0.4245E-02  0.3389E-02  0.3241E-02  0.4322E-03  0.3928E-03  0.5111E-03  0.4439E-03  0.1932E-03  0.1579E-03  0.5111E-03  0.4439E-03  0.1867E-03  0.1400E-03
      0.430  0.1907E-01  0.1995E-01  0.2809E-02  0.3084E-02  0.4472E-02  0.4650E-02  0.2809E-02  0.3084E-02  0.4050E-03  0.3888E-03  0.5078E-03  0.4724E-03  0.1742E-03  0.1604E-03  0.5078E-03  0.4724E-03  0.1425E-03  0.1326E-03
      0.505  0.1694E-01  0.1505E-01  0.2848E-02  0.2465E-02  0.4090E-02  0.4096E-02  0.2848E-02  0.2465E-02  0.5170E-03  0.3760E-03  0.5604E-03  0.4327E-03  0.1463E-03  0.1234E-03  0.5604E-03  0.4327E-03  0.1259E-03  0.9513E-04
      0.580  0.1867E-01  0.1570E-01  0.3455E-02  0.2944E-02  0.5083E-02  0.4722E-02  0.3455E-02  0.2944E-02  0.6723E-03  0.5328E-03  0.7282E-03  0.5807E-03  0.1690E-03  0.1265E-03  0.7282E-03  0.5807E-03  0.1536E-03  0.1015E-03
      0.656  0.1927E-01  0.1835E-01  0.3731E-02  0.3616E-02  0.6299E-02  0.6175E-02  0.3731E-02  0.3616E-02  0.7298E-03  0.6684E-03  0.8350E-03  0.7797E-03  0.2105E-03  0.1638E-03  0.8350E-03  0.7797E-03  0.1745E-03  0.1267E-03
      0.731  0.1960E-01  0.1842E-01  0.4386E-02  0.3990E-02  0.6529E-02  0.6566E-02  0.4386E-02  0.3990E-02  0.7537E-03  0.7050E-03  0.9378E-03  0.8452E-03  0.2349E-03  0.1942E-03  0.9378E-03  0.8452E-03  0.2339E-03  0.1541E-03
      0.806  0.1961E-01  0.1838E-01  0.5175E-02  0.4756E-02  0.6299E-02  0.6420E-02  0.5175E-02  0.4756E-02  0.7499E-03  0.6998E-03  0.1035E-02  0.9174E-03  0.2286E-03  0.2041E-03  0.1035E-02  0.9174E-03  0.3117E-03  0.2140E-03
      0.882  0.1684E-01  0.1650E-01  0.5156E-02  0.5035E-02  0.5523E-02  0.5508E-02  0.5156E-02  0.5035E-02  0.7571E-03  0.6774E-03  0.1015E-02  0.9111E-03  0.2101E-03  0.1937E-03  0.1015E-02  0.9111E-03  0.3028E-03  0.2358E-03
      0.957  0.1387E-01  0.1314E-01  0.5277E-02  0.4842E-02  0.4568E-02  0.4560E-02  0.5277E-02  0.4842E-02  0.8705E-03  0.7038E-03  0.1012E-02  0.8636E-03  0.2120E-03  0.1825E-03  0.1012E-02  0.8636E-03  0.2702E-03  0.2036E-03
      1.032  0.1429E-01  0.1231E-01  0.5994E-02  0.5423E-02  0.4857E-02  0.4605E-02  0.5994E-02  0.5423E-02  0.1239E-02  0.9216E-03  0.1248E-02  0.9959E-03  0.2364E-03  0.1969E-03  0.1248E-02  0.9959E-03  0.2649E-03  0.2005E-03