  16  16   1   0
  0.1473185E+02  0.3826445E-09  0.3826445E-09  0.1609853E-08  0.5000000E-15
  1.000000000000000E-004
  CAR 
 unknown system                          
     16.31254625     -3.63280606  301      8.12972694      1.00000000
     -3.633  0.0000E+00  0.0000E+00  0.0000E+00  0.0000E+00
     -3.566  0.0000E+00  0.0000E+00  0.0000E+00  0.0000E+00
     -3.500  0.0000E+00  0.0000E+00  0.0000E+00  0.0000E+00
     -3.433  0.0000E+00  0.0000E+00  0.0000E+00  0.0000E+00
     -3.367  0.0000E+00  0.0000E+00  0.0000E+00  0.0000E+00
     -3.300  0.0000E+00  0.0000E+00  0.0000E+00  0.0000E+00
     -3.234  0.0000E+00  0.0000E+00  0.0000E+00  0.0000E+00
     -3.167  0.4364E-05  0.0000E+00  0.2901E-06  0.0000E+00
     -3.101  0.4105E-04  0.1956E-04  0.3019E-05  0.1301E-05
     -3.034  0.1901E-03  0.1084E-03  0.1566E-04  0.8511E-05
     -2.968  0.7000E-03  0.3812E-03  0.6220E-04  0.3386E-04
     -2.901  0.2610E-02  0.1429E-02  0.2357E-03  0.1288E-03
     -2.835  0.9626E-02  0.5361E-02  0.8757E-03  0.4853E-03
     -2.769  0.3216E-01  0.1884E-01  0.3014E-02  0.1738E-02
     -2.702  0.8844E-01  0.5748E-01  0.8894E-02  0.5559E-02
     -2.636  0.1807E+00  0.1362E+00  0.2090E-01  0.1461E-01
     -2.569  0.2660E+00  0.2320E+00  0.3859E-01  0.3004E-01
     -2.503  0.3265E+00  0.2997E+00  0.6030E-01  0.4996E-01
     -2.436  0.4244E+00  0.3744E+00  0.8851E-01  0.7485E-01
     -2.370  0.5169E+00  0.4870E+00  0.1229E+00  0.1072E+00
     -2.303  0.4918E+00  0.5133E+00  0.1556E+00  0.1414E+00
     -2.237  0.4942E+00  0.4705E+00  0.1884E+00  0.1726E+00
     -2.170  0.6227E+00  0.5564E+00  0.2299E+00  0.2097E+00
     -2.104  0.6864E+00  0.6842E+00  0.2755E+00  0.2552E+00
     -2.037  0.6628E+00  0.6960E+00  0.3196E+00  0.3014E+00
     -1.971  0.6872E+00  0.6787E+00  0.3653E+00  0.3466E+00
     -1.904  0.7435E+00  0.7303E+00  0.4147E+00  0.3952E+00
     -1.838  0.7093E+00  0.7620E+00  0.4619E+00  0.4459E+00
     -1.771  0.6846E+00  0.7003E+00  0.5075E+00  0.4924E+00
     -1.705  0.8339E+00  0.7579E+00  0.5630E+00  0.5429E+00
     -1.638  0.9619E+00  0.9428E+00  0.6269E+00  0.6056E+00
     -1.572  0.9498E+00  0.9992E+00  0.6901E+00  0.6720E+00
     -1.505  0.9843E+00  0.9873E+00  0.7556E+00  0.7377E+00
     -1.439  0.1024E+01  0.1033E+01  0.8237E+00  0.8064E+00
     -1.372  0.8665E+00  0.9236E+00  0.8813E+00  0.8679E+00
     -1.306  0.7882E+00  0.7802E+00  0.9338E+00  0.9198E+00
     -1.239  0.9677E+00  0.9124E+00  0.9982E+00  0.9805E+00
     -1.173  0.1182E+01  0.1183E+01  0.1077E+01  0.1059E+01
     -1.106  0.1260E+01  0.1315E+01  0.1161E+01  0.1147E+01
     -1.040  0.1238E+01  0.1254E+01  0.1243E+01  0.1230E+01
     -0.973  0.1273E+01  0.1286E+01  0.1328E+01  0.1316E+01
     -0.907  0.1210E+01  0.1267E+01  0.1408E+01  0.1400E+01
     -0.840  0.1070E+01  0.1068E+01  0.1479E+01  0.1471E+01
     -0.774  0.1162E+01  0.1135E+01  0.1557E+01  0.1546E+01
     -0.707  0.1332E+01  0.1384E+01  0.1645E+01  0.1639E+01
     -0.641  0.1433E+01  0.1506E+01  0.1741E+01  0.1739E+01
     -0.575  0.1514E+01  0.1545E+01  0.1841E+01  0.1841E+01
     -0.508  0.1456E+01  0.1448E+01  0.1938E+01  0.1938E+01
     -0.442  0.1326E+01  0.1326E+01  0.2026E+01  0.2026E+01
     -0.375  0.1358E+01  0.1364E+01  0.2117E+01  0.2117E+01
     -0.309  0.1532E+01  0.1534E+01  0.2219E+01  0.2219E+01
     -0.242  0.1619E+01  0.1634E+01  0.2326E+01  0.2327E+01
     -0.176  0.1447E+01  0.1454E+01  0.2423E+01  0.2424E+01
     -0.109  0.1309E+01  0.1306E+01  0.2510E+01  0.2511E+01
     -0.043  0.1167E+01  0.1157E+01  0.2587E+01  0.2588E+01
      0.024  0.1020E+01  0.9839E+00  0.2655E+01  0.2654E+01
      0.090  0.1110E+01  0.1065E+01  0.2729E+01  0.2724E+01
      0.157  0.1372E+01  0.1357E+01  0.2821E+01  0.2815E+01
      0.223  0.1609E+01  0.1586E+01  0.2928E+01  0.2920E+01
      0.290  0.1518E+01  0.1428E+01  0.3028E+01  0.3015E+01
      0.356  0.1353E+01  0.1262E+01  0.3119E+01  0.3099E+01
      0.423  0.1338E+01  0.1262E+01  0.3207E+01  0.3183E+01
      0.489  0.1381E+01  0.1234E+01  0.3299E+01  0.3265E+01
      0.556  0.1585E+01  0.1345E+01  0.3405E+01  0.3355E+01
      0.622  0.1772E+01  0.1587E+01  0.3523E+01  0.3460E+01
      0.689  0.1725E+01  0.1711E+01  0.3638E+01  0.3574E+01
      0.755  0.1543E+01  0.1581E+01  0.3740E+01  0.3679E+01
      0.822  0.1425E+01  0.1465E+01  0.3835E+01  0.3777E+01
      0.888  0.1443E+01  0.1518E+01  0.3931E+01  0.3878E+01
      0.955  0.1561E+01  0.1513E+01  0.4035E+01  0.3978E+01
      1.021  0.1644E+01  0.1528E+01  0.4144E+01  0.4080E+01
      1.088  0.1692E+01  0.1541E+01  0.4257E+01  0.4183E+01
      1.154  0.1818E+01  0.1714E+01  0.4378E+01  0.4297E+01
      1.221  0.1883E+01  0.1944E+01  0.4503E+01  0.4426E+01
      1.287  0.1879E+01  0.1955E+01  0.4628E+01  0.4556E+01
      1.354  0.2013E+01  0.1912E+01  0.4762E+01  0.4683E+01
      1.420  0.2095E+01  0.1993E+01  0.4901E+01  0.4816E+01
      1.487  0.2046E+01  0.2024E+01  0.5037E+01  0.4950E+01
      1.553  0.2002E+01  0.1919E+01  0.5170E+01  0.5078E+01
      1.619  0.1867E+01  0.1830E+01  0.5295E+01  0.5200E+01
      1.686  0.1758E+01  0.1784E+01  0.5412E+01  0.5318E+01
      1.752  0.1762E+01  0.1777E+01  0.5529E+01  0.5437E+01
      1.819  0.1764E+01  0.1747E+01  0.5646E+01  0.5553E+01
      1.885  0.1772E+01  0.1732E+01  0.5764E+01  0.5668E+01
      1.952  0.1999E+01  0.1829E+01  0.5897E+01  0.5790E+01
      2.018  0.2071E+01  0.1938E+01  0.6035E+01  0.5919E+01
      2.085  0.1822E+01  0.1880E+01  0.6156E+01  0.6044E+01
      2.151  0.1661E+01  0.1708E+01  0.6267E+01  0.6157E+01
      2.218  0.1794E+01  0.1544E+01  0.6386E+01  0.6260E+01
      2.284  0.2193E+01  0.1511E+01  0.6532E+01  0.6361E+01
      2.351  0.2557E+01  0.1820E+01  0.6702E+01  0.6482E+01
      2.417  0.2555E+01  0.2334E+01  0.6872E+01  0.6637E+01
      2.484  0.2382E+01  0.2522E+01  0.7030E+01  0.6805E+01
      2.550  0.2104E+01  0.2423E+01  0.7170E+01  0.6966E+01
      2.617  0.1888E+01  0.2238E+01  0.7296E+01  0.7115E+01
      2.683  0.1868E+01  0.1910E+01  0.7420E+01  0.7242E+01
      2.750  0.1913E+01  0.1681E+01  0.7548E+01  0.7354E+01
      2.816  0.2021E+01  0.1775E+01  0.7682E+01  0.7472E+01
      2.883  0.2270E+01  0.1960E+01  0.7833E+01  0.7602E+01
      2.949  0.2413E+01  0.2209E+01  0.7994E+01  0.7749E+01
      3.016  0.2478E+01  0.2348E+01  0.8158E+01  0.7905E+01
      3.082  0.2551E+01  0.2293E+01  0.8328E+01  0.8058E+01
      3.149  0.2445E+01  0.2268E+01  0.8491E+01  0.8209E+01
      3.215  0.2509E+01  0.2278E+01  0.8658E+01  0.8360E+01
      3.282  0.2859E+01  0.2228E+01  0.8848E+01  0.8508E+01
      3.348  0.3031E+01  0.2476E+01  0.9049E+01  0.8673E+01
      3.415  0.2887E+01  0.2745E+01  0.9242E+01  0.8856E+01
      3.481  0.2677E+01  0.2669E+01  0.9420E+01  0.9033E+01
      3.548  0.2408E+01  0.2530E+01  0.9580E+01  0.9202E+01
      3.614  0.2138E+01  0.2490E+01  0.9722E+01  0.9367E+01
      3.680  0.2210E+01  0.2378E+01  0.9869E+01  0.9526E+01
      3.747  0.2466E+01  0.2100E+01  0.1003E+02  0.9665E+01
      3.813  0.2634E+01  0.1934E+01  0.1021E+02  0.9794E+01
      3.880  0.2644E+01  0.2067E+01  0.1038E+02  0.9932E+01
      3.946  0.2634E+01  0.2336E+01  0.1056E+02  0.1009E+02
      4.013  0.2777E+01  0.2396E+01  0.1074E+02  0.1025E+02
      4.079  0.2842E+01  0.2299E+01  0.1093E+02  0.1040E+02
      4.146  0.2840E+01  0.2272E+01  0.1112E+02  0.1055E+02
      4.212  0.3024E+01  0.2495E+01  0.1132E+02  0.1072E+02
      4.279  0.3122E+01  0.2794E+01  0.1153E+02  0.1090E+02
      4.345  0.3097E+01  0.2744E+01  0.1174E+02  0.1108E+02
      4.412  0.3180E+01  0.2751E+01  0.1195E+02  0.1127E+02
      4.478  0.3292E+01  0.2900E+01  0.1217E+02  0.1146E+02
      4.545  0.3456E+01  0.2811E+01  0.1240E+02  0.1165E+02
      4.611  0.3654E+01  0.2621E+01  0.1264E+02  0.1182E+02
      4.678  0.3741E+01  0.2666E+01  0.1289E+02  0.1200E+02
      4.744  0.4002E+01  0.2911E+01  0.1316E+02  0.1219E+02
      4.811  0.4208E+01  0.3115E+01  0.1344E+02  0.1240E+02
      4.877  0.4224E+01  0.3267E+01  0.1372E+02  0.1262E+02
      4.944  0.4202E+01  0.3182E+01  0.1400E+02  0.1283E+02
      5.010  0.4300E+01  0.2927E+01  0.1428E+02  0.1302E+02
      5.077  0.4680E+01  0.3119E+01  0.1459E+02  0.1323E+02
      5.143  0.4852E+01  0.3398E+01  0.1492E+02  0.1346E+02
      5.210  0.4715E+01  0.3377E+01  0.1523E+02  0.1368E+02
      5.276  0.4746E+01  0.3221E+01  0.1555E+02  0.1390E+02
      5.343  0.4903E+01  0.3188E+01  0.1587E+02  0.1411E+02
      5.409  0.4735E+01  0.3405E+01  0.1619E+02  0.1434E+02
      5.476  0.4572E+01  0.3505E+01  0.1649E+02  0.1457E+02
      5.542  0.4644E+01  0.3417E+01  0.1680E+02  0.1480E+02
      5.609  0.4756E+01  0.3595E+01  0.1712E+02  0.1503E+02
      5.675  0.4984E+01  0.4036E+01  0.1745E+02  0.1530E+02
      5.742  0.5042E+01  0.4236E+01  0.1778E+02  0.1559E+02
      5.808  0.5053E+01  0.3907E+01  0.1812E+02  0.1585E+02
      5.874  0.5750E+01  0.3443E+01  0.1850E+02  0.1607E+02
      5.941  0.6759E+01  0.3257E+01  0.1895E+02  0.1629E+02
      6.007  0.7527E+01  0.3363E+01  0.1945E+02  0.1651E+02
      6.074  0.8310E+01  0.3348E+01  0.2001E+02  0.1674E+02
      6.140  0.8839E+01  0.3203E+01  0.2059E+02  0.1695E+02
      6.207  0.8734E+01  0.3386E+01  0.2117E+02  0.1718E+02
      6.273  0.8246E+01  0.3693E+01  0.2172E+02  0.1742E+02
      6.340  0.7573E+01  0.3842E+01  0.2223E+02  0.1768E+02
      6.406  0.6915E+01  0.3960E+01  0.2269E+02  0.1794E+02
      6.473  0.6805E+01  0.4083E+01  0.2314E+02  0.1821E+02
      6.539  0.7223E+01  0.4295E+01  0.2362E+02  0.1850E+02
      6.606  0.7258E+01  0.4752E+01  0.2410E+02  0.1881E+02
      6.672  0.6501E+01  0.5083E+01  0.2454E+02  0.1915E+02
      6.739  0.5586E+01  0.5019E+01  0.2491E+02  0.1949E+02
      6.805  0.5204E+01  0.4906E+01  0.2525E+02  0.1981E+02
      6.872  0.5163E+01  0.4945E+01  0.2560E+02  0.2014E+02
      6.938  0.5034E+01  0.5030E+01  0.2593E+02  0.2048E+02
      7.005  0.4628E+01  0.5306E+01  0.2624E+02  0.2083E+02
      7.071  0.4221E+01  0.5643E+01  0.2652E+02  0.2120E+02
      7.138  0.4064E+01  0.5180E+01  0.2679E+02  0.2155E+02
      7.204  0.4393E+01  0.4394E+01  0.2708E+02  0.2184E+02
      7.271  0.5150E+01  0.4402E+01  0.2743E+02  0.2213E+02
      7.337  0.6239E+01  0.4640E+01  0.2784E+02  0.2244E+02
      7.404  0.7815E+01  0.4648E+01  0.2836E+02  0.2275E+02
      7.470  0.1072E+02  0.4721E+01  0.2907E+02  0.2307E+02
      7.537  0.1316E+02  0.4778E+01  0.2995E+02  0.2338E+02
      7.603  0.1256E+02  0.4543E+01  0.3079E+02  0.2369E+02
      7.670  0.1079E+02  0.4248E+01  0.3150E+02  0.2397E+02
      7.736  0.8943E+01  0.4565E+01  0.3210E+02  0.2427E+02
      7.803  0.7170E+01  0.4731E+01  0.3257E+02  0.2459E+02
      7.869  0.6470E+01  0.3908E+01  0.3301E+02  0.2485E+02
      7.935  0.6370E+01  0.3098E+01  0.3343E+02  0.2505E+02
      8.002  0.5775E+01  0.2790E+01  0.3381E+02  0.2524E+02
      8.068  0.4798E+01  0.2904E+01  0.3413E+02  0.2543E+02
      8.135  0.3857E+01  0.3187E+01  0.3439E+02  0.2564E+02
      8.201  0.3216E+01  0.3211E+01  0.3460E+02  0.2586E+02
      8.268  0.2774E+01  0.3166E+01  0.3479E+02  0.2607E+02
      8.334  0.2452E+01  0.3242E+01  0.3495E+02  0.2628E+02
      8.401  0.2502E+01  0.3360E+01  0.3512E+02  0.2651E+02
      8.467  0.2634E+01  0.3544E+01  0.3529E+02  0.2674E+02
      8.534  0.2637E+01  0.3758E+01  0.3547E+02  0.2699E+02
      8.600  0.2417E+01  0.3784E+01  0.3563E+02  0.2725E+02
      8.667  0.2138E+01  0.3773E+01  0.3577E+02  0.2750E+02
      8.733  0.2236E+01  0.3903E+01  0.3592E+02  0.2776E+02
      8.800  0.2539E+01  0.3889E+01  0.3609E+02  0.2802E+02
      8.866  0.2732E+01  0.4025E+01  0.3627E+02  0.2828E+02
      8.933  0.2893E+01  0.4326E+01  0.3647E+02  0.2857E+02
      8.999  0.3273E+01  0.4355E+01  0.3668E+02  0.2886E+02
      9.066  0.3984E+01  0.4224E+01  0.3695E+02  0.2914E+02
      9.132  0.4468E+01  0.4668E+01  0.3725E+02  0.2945E+02
      9.199  0.4863E+01  0.5694E+01  0.3757E+02  0.2983E+02
      9.265  0.5169E+01  0.6802E+01  0.3791E+02  0.3028E+02
      9.332  0.5424E+01  0.7637E+01  0.3827E+02  0.3079E+02
      9.398  0.5779E+01  0.8092E+01  0.3866E+02  0.3133E+02
      9.465  0.5735E+01  0.8453E+01  0.3904E+02  0.3189E+02
      9.531  0.5300E+01  0.9147E+01  0.3939E+02  0.3250E+02
      9.598  0.4682E+01  0.1025E+02  0.3970E+02  0.3318E+02
      9.664  0.4162E+01  0.1127E+02  0.3998E+02  0.3393E+02
      9.731  0.4024E+01  0.1180E+02  0.4025E+02  0.3472E+02
      9.797  0.4169E+01  0.1049E+02  0.4053E+02  0.3541E+02
      9.864  0.4119E+01  0.7813E+01  0.4080E+02  0.3593E+02
      9.930  0.3949E+01  0.6394E+01  0.4106E+02  0.3636E+02
      9.997  0.3691E+01  0.6049E+01  0.4131E+02  0.3676E+02
     10.063  0.3474E+01  0.5492E+01  0.4154E+02  0.3713E+02
     10.129  0.3286E+01  0.4694E+01  0.4176E+02  0.3744E+02
     10.196  0.3125E+01  0.4175E+01  0.4197E+02  0.3772E+02
     10.262  0.3274E+01  0.4127E+01  0.4218E+02  0.3799E+02
     10.329  0.3639E+01  0.4452E+01  0.4243E+02  0.3829E+02
     10.395  0.4115E+01  0.4873E+01  0.4270E+02  0.3861E+02
     10.462  0.4278E+01  0.5278E+01  0.4298E+02  0.3896E+02
     10.528  0.3911E+01  0.5669E+01  0.4324E+02  0.3934E+02
     10.595  0.3514E+01  0.5898E+01  0.4348E+02  0.3973E+02
     10.661  0.3292E+01  0.5744E+01  0.4370E+02  0.4012E+02
     10.728  0.3430E+01  0.5446E+01  0.4393E+02  0.4048E+02
     10.794  0.3706E+01  0.5731E+01  0.4417E+02  0.4086E+02
     10.861  0.3678E+01  0.6311E+01  0.4442E+02  0.4128E+02
     10.927  0.3423E+01  0.6537E+01  0.4464E+02  0.4171E+02
     10.994  0.3542E+01  0.6185E+01  0.4488E+02  0.4213E+02
     11.060  0.3964E+01  0.5583E+01  0.4514E+02  0.4250E+02
     11.127  0.4131E+01  0.5175E+01  0.4542E+02  0.4284E+02
     11.193  0.4084E+01  0.4876E+01  0.4569E+02  0.4317E+02
     11.260  0.4144E+01  0.4495E+01  0.4597E+02  0.4347E+02
     11.326  0.4452E+01  0.4008E+01  0.4626E+02  0.4373E+02
     11.393  0.4532E+01  0.3841E+01  0.4656E+02  0.4399E+02
     11.459  0.4152E+01  0.4376E+01  0.4684E+02  0.4428E+02
     11.526  0.3887E+01  0.4939E+01  0.4710E+02  0.4461E+02
     11.592  0.4098E+01  0.4913E+01  0.4737E+02  0.4493E+02
     11.659  0.4430E+01  0.4792E+01  0.4767E+02  0.4525E+02
     11.725  0.4581E+01  0.5190E+01  0.4797E+02  0.4560E+02
     11.792  0.4558E+01  0.5517E+01  0.4827E+02  0.4597E+02
     11.858  0.4123E+01  0.5255E+01  0.4855E+02  0.4631E+02
     11.925  0.3243E+01  0.5054E+01  0.4876E+02  0.4665E+02
     11.991  0.2602E+01  0.4925E+01  0.4894E+02  0.4698E+02
     12.058  0.2476E+01  0.4636E+01  0.4910E+02  0.4729E+02
     12.124  0.2762E+01  0.4475E+01  0.4929E+02  0.4758E+02
     12.191  0.3308E+01  0.4494E+01  0.4951E+02  0.4788E+02
     12.257  0.3644E+01  0.4536E+01  0.4975E+02  0.4819E+02
     12.323  0.3581E+01  0.4414E+01  0.4999E+02  0.4848E+02
     12.390  0.3561E+01  0.3947E+01  0.5022E+02  0.4874E+02
     12.456  0.3730E+01  0.3517E+01  0.5047E+02  0.4898E+02
     12.523  0.3785E+01  0.3320E+01  0.5072E+02  0.4920E+02
     12.589  0.3650E+01  0.3277E+01  0.5097E+02  0.4942E+02
     12.656  0.3257E+01  0.3555E+01  0.5118E+02  0.4965E+02
     12.722  0.2696E+01  0.4037E+01  0.5136E+02  0.4992E+02
     12.789  0.2600E+01  0.4414E+01  0.5154E+02  0.5021E+02
     12.855  0.2974E+01  0.4197E+01  0.5173E+02  0.5049E+02
     12.922  0.3324E+01  0.3606E+01  0.5195E+02  0.5073E+02
     12.988  0.3339E+01  0.3366E+01  0.5218E+02  0.5096E+02
     13.055  0.3202E+01  0.3396E+01  0.5239E+02  0.5118E+02
     13.121  0.3006E+01  0.3386E+01  0.5259E+02  0.5141E+02
     13.188  0.3138E+01  0.3333E+01  0.5280E+02  0.5163E+02
     13.254  0.3726E+01  0.3223E+01  0.5305E+02  0.5184E+02
     13.321  0.4059E+01  0.3166E+01  0.5332E+02  0.5206E+02
     13.387  0.3730E+01  0.3191E+01  0.5356E+02  0.5227E+02
     13.454  0.3397E+01  0.3184E+01  0.5379E+02  0.5248E+02
     13.520  0.3401E+01  0.3419E+01  0.5402E+02  0.5271E+02
     13.587  0.3384E+01  0.3771E+01  0.5424E+02  0.5296E+02
     13.653  0.3125E+01  0.3700E+01  0.5445E+02  0.5320E+02
     13.720  0.2761E+01  0.3568E+01  0.5463E+02  0.5344E+02
     13.786  0.2643E+01  0.3482E+01  0.5481E+02  0.5367E+02
     13.853  0.2664E+01  0.3255E+01  0.5499E+02  0.5389E+02
     13.919  0.2435E+01  0.3215E+01  0.5515E+02  0.5410E+02
     13.986  0.2022E+01  0.3477E+01  0.5528E+02  0.5433E+02
     14.052  0.1686E+01  0.3556E+01  0.5540E+02  0.5457E+02
     14.119  0.1269E+01  0.3047E+01  0.5548E+02  0.5477E+02
     14.185  0.9061E+00  0.2551E+01  0.5554E+02  0.5494E+02
     14.252  0.7579E+00  0.2475E+01  0.5559E+02  0.5511E+02
     14.318  0.8103E+00  0.2273E+01  0.5564E+02  0.5526E+02
     14.384  0.8898E+00  0.1853E+01  0.5570E+02  0.5538E+02
     14.451  0.9168E+00  0.1495E+01  0.5576E+02  0.5548E+02
     14.517  0.8104E+00  0.1364E+01  0.5582E+02  0.5557E+02
     14.584  0.5846E+00  0.1326E+01  0.5586E+02  0.5566E+02
     14.650  0.4292E+00  0.1186E+01  0.5589E+02  0.5574E+02
     14.717  0.4138E+00  0.9957E+00  0.5591E+02  0.5581E+02
     14.783  0.4068E+00  0.7597E+00  0.5594E+02  0.5586E+02
     14.850  0.3340E+00  0.5766E+00  0.5596E+02  0.5590E+02
     14.916  0.2286E+00  0.5104E+00  0.5598E+02  0.5593E+02
     14.983  0.1309E+00  0.4125E+00  0.5599E+02  0.5596E+02
     15.049  0.5890E-01  0.2562E+00  0.5599E+02  0.5597E+02
     15.116  0.3443E-01  0.1416E+00  0.5599E+02  0.5598E+02
     15.182  0.3968E-01  0.7604E-01  0.5600E+02  0.5599E+02
     15.249  0.3462E-01  0.3580E-01  0.5600E+02  0.5599E+02
     15.315  0.1627E-01  0.2176E-01  0.5600E+02  0.5599E+02
     15.382  0.5185E-02  0.3130E-01  0.5600E+02  0.5600E+02
     15.448  0.1453E-02  0.3836E-01  0.5600E+02  0.5600E+02
     15.515  0.3906E-03  0.2369E-01  0.5600E+02  0.5600E+02
     15.581  0.0000E+00  0.8637E-02  0.5600E+02  0.5600E+02
     15.648  0.0000E+00  0.2524E-02  0.5600E+02  0.5600E+02
     15.714  0.0000E+00  0.6865E-03  0.5600E+02  0.5600E+02
     15.781  0.0000E+00  0.1829E-03  0.5600E+02  0.5600E+02
     15.847  0.0000E+00  0.0000E+00  0.5600E+02  0.5600E+02
     15.914  0.0000E+00  0.0000E+00  0.5600E+02  0.5600E+02
     15.980  0.0000E+00  0.0000E+00  0.5600E+02  0.5600E+02
     16.047  0.0000E+00  0.0000E+00  0.5600E+02  0.5600E+02
     16.113  0.0000E+00  0.0000E+00  0.5600E+02  0.5600E+02
     16.180  0.0000E+00  0.0000E+00  0.5600E+02  0.5600E+02
     16.246  0.0000E+00  0.0000E+00  0.5600E+02  0.5600E+02
     16.313  0.0000E+00  0.0000E+00  0.5600E+02  0.5600E+02
     16.31254625     -3.63280606  301      8.12972694      1.00000000
     -3.633  0.0000E+00  0.0000E+00  0.0000E+00  0.0000E+00  0.0000E+00  0.0000E+00  0.0000E+00  0.0000E+00  0.0000E+00  0.0000E+00  0.0000E+00  0.0000E+00  0.0000E+00  0.0000E+00  0.0000E+00  0.0000E+00  0.0000E+00  0.0000E+00
     -3.566  0.0000E+00  0.0000E+00  0.0000E+00  0.0000E+00  0.0000E+00  0.0000E+00  0.0000E+00  0.0000E+00  0.0000E+00  0.0000E+00  0.0000E+00  0.0000E+00  0.0000E+00  0.0000E+00  0.0000E+00  0.0000E+00  0.0000E+00  0.0000E+00
     -3.500  0.0000E+00  0.0000E+00  0.0000E+00  0.0000E+00  0.0000E+00  0.0000E+00  0.0000E+00  0.0000E+00  0.0000E+00  0.0000E+00  0.0000E+00  0.0000E+00  0.0000E+00  0.0000E+00  0.0000E+00  0.0000E+00  0.0000E+00  0.0000E+00
     -3.433  0.0000E+00  0.0000E+00  0.0000E+00  0.0000E+00  0.0000E+00  0.0000E+00  0.0000E+00  0.0000E+00  0.0000E+00  0.0000E+00  0.0000E+00  0.0000E+00  0.0000E+00  0.0000E+00  0.0000E+00  0.0000E+00  0.0000E+00  0.0000E+00
     -3.367  0.0000E+00  0.0000E+00  0.0000E+00  0.0000E+00  0.0000E+00  0.0000E+00  0.0000E+00  0.0000E+00  0.0000E+00  0.0000E+00  0.0000E+00  0.0000E+00  0.0000E+00  0.0000E+00  0.0000E+00  0.0000E+00  0.0000E+00  0.0000E+00
     -3.300  0.0000E+00  0.0000E+00  0.0000E+00  0.0000E+00  0.0000E+00  0.0000E+00  0.0000E+00  0.0000E+00  0.0000E+00  0.0000E+00  0.0000E+00  0.0000E+00  0.0000E+00  0.0000E+00  0.0000E+00  0.0000E+00  0.0000E+00  0.0000E+00
     -3.234  0.0000E+00  0.0000E+00  0.0000E+00  0.0000E+00  0.0000E+00  0.0000E+00  0.0000E+00  0.0000E+00  0.0000E+00  0.0000E+00  0.0000E+00  0.0000E+00  0.0000E+00  0.0000E+00  0.0000E+00  0.0000E+00  0.0000E+00  0.0000E+00
     -3.167  0.1157E-06  0.0000E+00  0.1096E-20  0.0000E+00  0.2015E-09  0.0000E+00  0.1096E-20  0.0000E+00  0.4085E-16  0.0000E+00  0.3612E-16  0.0000E+00  0.6407E-11  0.0000E+00  0.3612E-16  0.0000E+00  0.2819E-15  0.0000E+00
     -3.101  0.1079E-05  0.4576E-06  0.2362E-08  0.1197E-08  0.4592E-08  0.2864E-09  0.2362E-08  0.1197E-08  0.1252E-15  0.3822E-16  0.1182E-10  0.2808E-11  0.7341E-10  0.8004E-10  0.1182E-10  0.2808E-11  0.1040E-10  0.4001E-11
     -3.034  0.4973E-05  0.2515E-05  0.1686E-07  0.8571E-08  0.2835E-07  0.1294E-07  0.1686E-07  0.8571E-08  0.8510E-10  0.3971E-10  0.1759E-09  0.6137E-10  0.3466E-09  0.3733E-09  0.1759E-09  0.6137E-10  0.5111E-10  0.1964E-10
     -2.968  0.1830E-04  0.8837E-05  0.6462E-07  0.3288E-07  0.1077E-06  0.4408E-07  0.6462E-07  0.3288E-07  0.4205E-09  0.1960E-09  0.7844E-09  0.2857E-09  0.1253E-08  0.1344E-08  0.7844E-09  0.2857E-09  0.1707E-09  0.6567E-10
     -2.901  0.6820E-04  0.3311E-04  0.2454E-06  0.1252E-06  0.4049E-06  0.1662E-06  0.2454E-06  0.1252E-06  0.1403E-08  0.6545E-09  0.2766E-08  0.9892E-09  0.4954E-08  0.5156E-08  0.2766E-08  0.9892E-09  0.8802E-09  0.3405E-09
     -2.835  0.2513E-03  0.1241E-03  0.9723E-06  0.5001E-06  0.1570E-05  0.6570E-06  0.9723E-06  0.5001E-06  0.6273E-08  0.2944E-08  0.1171E-07  0.4267E-08  0.1905E-07  0.1967E-07  0.1171E-07  0.4267E-08  0.3881E-08  0.1512E-08
     -2.769  0.8384E-03  0.4357E-03  0.3507E-05  0.1846E-05  0.5558E-05  0.2416E-05  0.3507E-05  0.1846E-05  0.2464E-07  0.1167E-07  0.4453E-07  0.1664E-07  0.6464E-07  0.6933E-07  0.4453E-07  0.1664E-07  0.1377E-07  0.5483E-08
     -2.702  0.2299E-02  0.1327E-02  0.1116E-04  0.6261E-05  0.1712E-04  0.8129E-05  0.1116E-04  0.6261E-05  0.8509E-07  0.4119E-07  0.1492E-06  0.5822E-07  0.1856E-06  0.2140E-06  0.1492E-06  0.5822E-07  0.4428E-07  0.1861E-07
     -2.636  0.4672E-02  0.3129E-02  0.2845E-04  0.1798E-04  0.4182E-04  0.2306E-04  0.2845E-04  0.1798E-04  0.2601E-06  0.1371E-06  0.4304E-06  0.1877E-06  0.4175E-06  0.5216E-06  0.4304E-06  0.1877E-06  0.1230E-06  0.5563E-07
     -2.569  0.6821E-02  0.5293E-02  0.5531E-04  0.3944E-04  0.7727E-04  0.4963E-04  0.5531E-04  0.3944E-04  0.6163E-06  0.3685E-06  0.9636E-06  0.4866E-06  0.7739E-06  0.9529E-06  0.9636E-06  0.4866E-06  0.3156E-06  0.1456E-06
     -2.503  0.8261E-02  0.6758E-02  0.9399E-04  0.6959E-04  0.1251E-03  0.8497E-04  0.9399E-04  0.6959E-04  0.1247E-05  0.7805E-06  0.1858E-05  0.9940E-06  0.1437E-05  0.1472E-05  0.1858E-05  0.9940E-06  0.7877E-06  0.3730E-06
     -2.436  0.1058E-01  0.8303E-02  0.1577E-03  0.1181E-03  0.2080E-03  0.1426E-03  0.1577E-03  0.1181E-03  0.2543E-05  0.1587E-05  0.3648E-05  0.1957E-05  0.2562E-05  0.2341E-05  0.3648E-05  0.1957E-05  0.1574E-05  0.8466E-06
     -2.370  0.1274E-01  0.1066E-01  0.2205E-03  0.1839E-03  0.2972E-03  0.2280E-03  0.2205E-03  0.1839E-03  0.4451E-05  0.3062E-05  0.6201E-05  0.3733E-05  0.3494E-05  0.3405E-05  0.6201E-05  0.3733E-05  0.2171E-05  0.1376E-05
     -2.303  0.1197E-01  0.1110E-01  0.2406E-03  0.2192E-03  0.3324E-03  0.2785E-03  0.2406E-03  0.2192E-03  0.6140E-05  0.4598E-05  0.8302E-05  0.5524E-05  0.3986E-05  0.3832E-05  0.8302E-05  0.5524E-05  0.2496E-05  0.1619E-05
     -2.237  0.1176E-01  0.9985E-02  0.2963E-03  0.2424E-03  0.4075E-03  0.3057E-03  0.2963E-03  0.2424E-03  0.9029E-05  0.6335E-05  0.1211E-04  0.7446E-05  0.5797E-05  0.4422E-05  0.1211E-04  0.7446E-05  0.3994E-05  0.2151E-05
     -2.170  0.1457E-01  0.1154E-01  0.4398E-03  0.3479E-03  0.5561E-03  0.4222E-03  0.4398E-03  0.3479E-03  0.1374E-04  0.9879E-05  0.1861E-04  0.1173E-04  0.9595E-05  0.7056E-05  0.1861E-04  0.1173E-04  0.7749E-05  0.4107E-05
     -2.104  0.1589E-01  0.1399E-01  0.5505E-03  0.4810E-03  0.6064E-03  0.5513E-03  0.5505E-03  0.4810E-03  0.1723E-04  0.1344E-04  0.2277E-04  0.1602E-04  0.1296E-04  0.1082E-04  0.2277E-04  0.1602E-04  0.1188E-04  0.7148E-05
     -2.037  0.1512E-01  0.1403E-01  0.5800E-03  0.5344E-03  0.6364E-03  0.6025E-03  0.5800E-03  0.5344E-03  0.2156E-04  0.1625E-04  0.2749E-04  0.1881E-04  0.1438E-04  0.1274E-04  0.2749E-04  0.1881E-04  0.1294E-04  0.8873E-05
     -1.971  0.1538E-01  0.1342E-01  0.6295E-03  0.5556E-03  0.7914E-03  0.6854E-03  0.6295E-03  0.5556E-03  0.3119E-04  0.2220E-04  0.3839E-04  0.2513E-04  0.1588E-04  0.1275E-04  0.3839E-04  0.2513E-04  0.1232E-04  0.8435E-05
     -1.904  0.1640E-01  0.1415E-01  0.7477E-03  0.6536E-03  0.8837E-03  0.8090E-03  0.7477E-03  0.6536E-03  0.4399E-04  0.3276E-04  0.4949E-04  0.3580E-04  0.1794E-04  0.1398E-04  0.4949E-04  0.3580E-04  0.1432E-04  0.9020E-05
     -1.838  0.1545E-01  0.1455E-01  0.7843E-03  0.7471E-03  0.8356E-03  0.8554E-03  0.7843E-03  0.7471E-03  0.4718E-04  0.3995E-04  0.5288E-04  0.4305E-04  0.1885E-04  0.1557E-04  0.5288E-04  0.4305E-04  0.1769E-04  0.1124E-04
     -1.771  0.1457E-01  0.1311E-01  0.8172E-03  0.7380E-03  0.8994E-03  0.8490E-03  0.8172E-03  0.7380E-03  0.4516E-04  0.3735E-04  0.5837E-04  0.4354E-04  0.2392E-04  0.1732E-04  0.5837E-04  0.4354E-04  0.2511E-04  0.1456E-04
     -1.705  0.1732E-01  0.1375E-01  0.1088E-02  0.8891E-03  0.1181E-02  0.1004E-02  0.1088E-02  0.8891E-03  0.6162E-04  0.4395E-04  0.7745E-04  0.5162E-04  0.3867E-04  0.2587E-04  0.7745E-04  0.5162E-04  0.3967E-04  0.2266E-04
     -1.638  0.1962E-01  0.1672E-01  0.1311E-02  0.1175E-02  0.1462E-02  0.1345E-02  0.1311E-02  0.1175E-02  0.8661E-04  0.6509E-04  0.9287E-04  0.6942E-04  0.5447E-04  0.3874E-04  0.9287E-04  0.6942E-04  0.4797E-04  0.3119E-04
     -1.572  0.1906E-01  0.1741E-01  0.1327E-02  0.1269E-02  0.1569E-02  0.1556E-02  0.1327E-02  0.1269E-02  0.1048E-03  0.8253E-04  0.1021E-03  0.8280E-04  0.5943E-04  0.4392E-04  0.1021E-03  0.8280E-04  0.4613E-04  0.3205E-04
     -1.505  0.1938E-01  0.1686E-01  0.1446E-02  0.1313E-02  0.1705E-02  0.1616E-02  0.1446E-02  0.1313E-02  0.1237E-03  0.9574E-04  0.1324E-03  0.9894E-04  0.5915E-04  0.4331E-04  0.1324E-03  0.9894E-04  0.5054E-04  0.3277E-04
     -1.439  0.1980E-01  0.1726E-01  0.1518E-02  0.1419E-02  0.1943E-02  0.1813E-02  0.1518E-02  0.1419E-02  0.1361E-03  0.1101E-03  0.1655E-03  0.1258E-03  0.5964E-04  0.4428E-04  0.1655E-03  0.1258E-03  0.5220E-04  0.3533E-04
     -1.372  0.1641E-01  0.1511E-01  0.1296E-02  0.1280E-02  0.1802E-02  0.1765E-02  0.1296E-02  0.1280E-02  0.1288E-03  0.1107E-03  0.1612E-03  0.1306E-03  0.5231E-04  0.3930E-04  0.1612E-03  0.1306E-03  0.4242E-04  0.2957E-04
     -1.306  0.1446E-01  0.1238E-01  0.1341E-02  0.1177E-02  0.1581E-02  0.1513E-02  0.1341E-02  0.1177E-02  0.1481E-03  0.1138E-03  0.1686E-03  0.1263E-03  0.5101E-04  0.3533E-04  0.1686E-03  0.1263E-03  0.4839E-04  0.2797E-04
     -1.239  0.1717E-01  0.1386E-01  0.1842E-02  0.1545E-02  0.1875E-02  0.1770E-02  0.1842E-02  0.1545E-02  0.2111E-03  0.1525E-03  0.2114E-03  0.1559E-03  0.7875E-04  0.5229E-04  0.2114E-03  0.1559E-03  0.7848E-04  0.4449E-04
     -1.173  0.2031E-01  0.1728E-01  0.2313E-02  0.2091E-02  0.2512E-02  0.2484E-02  0.2313E-02  0.2091E-02  0.2572E-03  0.1997E-03  0.2521E-03  0.2000E-03  0.1214E-03  0.8418E-04  0.2521E-03  0.2000E-03  0.1146E-03  0.7076E-04
     -1.106  0.2097E-01  0.1858E-01  0.2414E-02  0.2316E-02  0.3113E-02  0.3078E-02  0.2414E-02  0.2316E-02  0.2534E-03  0.2113E-03  0.2912E-03  0.2346E-03  0.1410E-03  0.1006E-03  0.2912E-03  0.2346E-03  0.1315E-03  0.8619E-04
     -1.040  0.2003E-01  0.1719E-01  0.2427E-02  0.2252E-02  0.3219E-02  0.3109E-02  0.2427E-02  0.2252E-02  0.2766E-03  0.2182E-03  0.3287E-03  0.2572E-03  0.1356E-03  0.9376E-04  0.3287E-03  0.2572E-03  0.1317E-03  0.8403E-04
     -0.973  0.2004E-01  0.1701E-01  0.2631E-02  0.2422E-02  0.3308E-02  0.3244E-02  0.2631E-02  0.2422E-02  0.3387E-03  0.2698E-03  0.3792E-03  0.3001E-03  0.1399E-03  0.9610E-04  0.3792E-03  0.3001E-03  0.1374E-03  0.8569E-04
     -0.907  0.1834E-01  0.1607E-01  0.2457E-02  0.2381E-02  0.3523E-02  0.3505E-02  0.2457E-02  0.2381E-02  0.3436E-03  0.2831E-03  0.4045E-03  0.3227E-03  0.1394E-03  0.9765E-04  0.4045E-03  0.3227E-03  0.1231E-03  0.8281E-04
     -0.840  0.1542E-01  0.1272E-01  0.2216E-02  0.2002E-02  0.3341E-02  0.3297E-02  0.2216E-02  0.2002E-02  0.3742E-03  0.2748E-03  0.4152E-03  0.3068E-03  0.1194E-03  0.8034E-04  0.4152E-03  0.3068E-03  0.9926E-04  0.6461E-04
     -0.774  0.1577E-01  0.1256E-01  0.2572E-02  0.2229E-02  0.3694E-02  0.3674E-02  0.2572E-02  0.2229E-02  0.4944E-03  0.3591E-03  0.5191E-03  0.3876E-03  0.1209E-03  0.8059E-04  0.5191E-03  0.3876E-03  0.1087E-03  0.6433E-04
     -0.707  0.1706E-01  0.1470E-01  0.2973E-02  0.2820E-02  0.4607E-02  0.4536E-02  0.2973E-02  0.2820E-02  0.5799E-03  0.4652E-03  0.6390E-03  0.5259E-03  0.1485E-03  0.1024E-03  0.6390E-03  0.5259E-03  0.1310E-03  0.8181E-04
     -0.641  0.1742E-01  0.1526E-01  0.3376E-02  0.3260E-02  0.5029E-02  0.4907E-02  0.3376E-02  0.3260E-02  0.6138E-03  0.5053E-03  0.7175E-03  0.5927E-03  0.1738E-03  0.1228E-03  0.7175E-03  0.5927E-03  0.1652E-03  0.1046E-03
     -0.575  0.1746E-01  0.1478E-01  0.3957E-02  0.3729E-02  0.4992E-02  0.4716E-02  0.3957E-02  0.3729E-02  0.6229E-03  0.5046E-03  0.7957E-03  0.6222E-03  0.1785E-03  0.1288E-03  0.7957E-03  0.6222E-03  0.2178E-03  0.1338E-03
     -0.508  0.1576E-01  0.1305E-01  0.4154E-02  0.3888E-02  0.4535E-02  0.4008E-02  0.4154E-02  0.3888E-02  0.6265E-03  0.4956E-03  0.8078E-03  0.6134E-03  0.1662E-03  0.1210E-03  0.8078E-03  0.6134E-03  0.2332E-03  0.1407E-03
     -0.442  0.1313E-01  0.1078E-01  0.4156E-02  0.3871E-02  0.3847E-02  0.3501E-02  0.4156E-02  0.3871E-02  0.6805E-03  0.5247E-03  0.7927E-03  0.6028E-03  0.1615E-03  0.1162E-03  0.7927E-03  0.6028E-03  0.2119E-03  0.1273E-03
     -0.375  0.1239E-01  0.9971E-02  0.4546E-02  0.4169E-02  0.3700E-02  0.3604E-02  0.4546E-02  0.4169E-02  0.8841E-03  0.6510E-03  0.8972E-03  0.6856E-03  0.1719E-03  0.1213E-03  0.8972E-03  0.6856E-03  0.2029E-03  0.1212E-03
     -0.309  0.1362E-01  0.1096E-01  0.4889E-02  0.4481E-02  0.4597E-02  0.4384E-02  0.4889E-02  0.4481E-02  0.1162E-02  0.8704E-03  0.1199E-02  0.9117E-03  0.1823E-03  0.1293E-03  0.1199E-02  0.9117E-03  0.1858E-03  0.1085E-03