  16  16   1   0
  0.1223604E+02  0.3596858E-09  0.3596858E-09  0.1513262E-08  0.5000000E-15
  1.000000000000000E-004
  CAR 
 unknown system                          
     19.25303353     -2.88677924  301     10.23042888      1.00000000
     -2.887  0.0000E+00  0.0000E+00  0.0000E+00  0.0000E+00
     -2.813  0.0000E+00  0.0000E+00  0.0000E+00  0.0000E+00
     -2.739  0.0000E+00  0.0000E+00  0.0000E+00  0.0000E+00
     -2.665  0.0000E+00  0.0000E+00  0.0000E+00  0.0000E+00
     -2.592  0.0000E+00  0.0000E+00  0.0000E+00  0.0000E+00
     -2.518  0.0000E+00  0.0000E+00  0.0000E+00  0.0000E+00
     -2.444  0.0000E+00  0.0000E+00  0.0000E+00  0.0000E+00
     -2.370  0.0000E+00  0.0000E+00  0.0000E+00  0.0000E+00
     -2.296  0.6514E-05  0.2404E-05  0.4807E-06  0.1774E-06
     -2.223  0.6411E-04  0.2369E-04  0.5212E-05  0.1926E-05
     -2.149  0.3290E-03  0.1217E-03  0.2949E-04  0.1091E-04
     -2.075  0.1412E-02  0.5218E-03  0.1337E-03  0.4942E-04
     -2.001  0.5971E-02  0.2250E-02  0.5743E-03  0.2155E-03
     -1.927  0.2308E-01  0.9411E-02  0.2278E-02  0.9100E-03
     -1.854  0.7158E-01  0.3444E-01  0.7560E-02  0.3452E-02
     -1.780  0.1576E+00  0.9657E-01  0.1919E-01  0.1058E-01
     -1.706  0.2359E+00  0.1872E+00  0.3660E-01  0.2439E-01
     -1.632  0.2780E+00  0.2513E+00  0.5711E-01  0.4294E-01
     -1.558  0.3628E+00  0.2962E+00  0.8388E-01  0.6480E-01
     -1.485  0.4708E+00  0.4032E+00  0.1186E+00  0.9455E-01
     -1.411  0.4424E+00  0.4773E+00  0.1513E+00  0.1298E+00
     -1.337  0.4059E+00  0.4113E+00  0.1813E+00  0.1601E+00
     -1.263  0.5350E+00  0.4256E+00  0.2208E+00  0.1916E+00
     -1.189  0.6185E+00  0.5774E+00  0.2664E+00  0.2342E+00
     -1.116  0.5799E+00  0.6266E+00  0.3093E+00  0.2805E+00
     -1.042  0.5845E+00  0.5867E+00  0.3525E+00  0.3238E+00
     -0.968  0.6561E+00  0.6090E+00  0.4009E+00  0.3688E+00
     -0.894  0.6465E+00  0.6795E+00  0.4486E+00  0.4189E+00
     -0.820  0.5652E+00  0.6383E+00  0.4904E+00  0.4660E+00
     -0.747  0.6760E+00  0.5847E+00  0.5403E+00  0.5092E+00
     -0.673  0.8534E+00  0.7382E+00  0.6033E+00  0.5637E+00
     -0.599  0.8443E+00  0.8882E+00  0.6656E+00  0.6293E+00
     -0.525  0.8319E+00  0.8583E+00  0.7270E+00  0.6927E+00
     -0.451  0.9333E+00  0.8814E+00  0.7959E+00  0.7578E+00
     -0.378  0.8578E+00  0.9433E+00  0.8593E+00  0.8274E+00
     -0.304  0.6683E+00  0.7523E+00  0.9087E+00  0.8830E+00
     -0.230  0.7480E+00  0.6531E+00  0.9639E+00  0.9312E+00
     -0.156  0.9715E+00  0.8527E+00  0.1036E+01  0.9942E+00
     -0.082  0.1115E+01  0.1097E+01  0.1118E+01  0.1075E+01
     -0.009  0.1107E+01  0.1168E+01  0.1200E+01  0.1162E+01
      0.065  0.1111E+01  0.1096E+01  0.1282E+01  0.1243E+01
      0.139  0.1154E+01  0.1162E+01  0.1367E+01  0.1328E+01
      0.213  0.1006E+01  0.1116E+01  0.1441E+01  0.1411E+01
      0.287  0.9542E+00  0.9065E+00  0.1512E+01  0.1478E+01
      0.360  0.1108E+01  0.1030E+01  0.1594E+01  0.1554E+01
      0.434  0.1216E+01  0.1246E+01  0.1683E+01  0.1646E+01
      0.508  0.1308E+01  0.1313E+01  0.1780E+01  0.1743E+01
      0.582  0.1371E+01  0.1381E+01  0.1881E+01  0.1845E+01
      0.656  0.1267E+01  0.1302E+01  0.1975E+01  0.1941E+01
      0.729  0.1171E+01  0.1158E+01  0.2061E+01  0.2026E+01
      0.803  0.1278E+01  0.1218E+01  0.2156E+01  0.2116E+01
      0.877  0.1466E+01  0.1427E+01  0.2264E+01  0.2222E+01
      0.951  0.1431E+01  0.1512E+01  0.2370E+01  0.2333E+01
      1.025  0.1230E+01  0.1289E+01  0.2460E+01  0.2429E+01
      1.098  0.1142E+01  0.1177E+01  0.2545E+01  0.2515E+01
      1.172  0.9689E+00  0.1034E+01  0.2616E+01  0.2592E+01
      1.246  0.9016E+00  0.8599E+00  0.2683E+01  0.2655E+01
      1.320  0.1064E+01  0.9718E+00  0.2762E+01  0.2727E+01
      1.394  0.1362E+01  0.1268E+01  0.2862E+01  0.2821E+01
      1.467  0.1489E+01  0.1481E+01  0.2972E+01  0.2930E+01
      1.541  0.1298E+01  0.1287E+01  0.3068E+01  0.3025E+01
      1.615  0.1240E+01  0.1172E+01  0.3160E+01  0.3112E+01
      1.689  0.1214E+01  0.1186E+01  0.3249E+01  0.3199E+01
      1.763  0.1267E+01  0.1132E+01  0.3343E+01  0.3283E+01
      1.836  0.1540E+01  0.1261E+01  0.3457E+01  0.3376E+01
      1.910  0.1685E+01  0.1555E+01  0.3581E+01  0.3491E+01
      1.984  0.1456E+01  0.1619E+01  0.3689E+01  0.3611E+01
      2.058  0.1303E+01  0.1349E+01  0.3785E+01  0.3710E+01
      2.132  0.1270E+01  0.1306E+01  0.3879E+01  0.3807E+01
      2.205  0.1267E+01  0.1384E+01  0.3972E+01  0.3909E+01
      2.279  0.1399E+01  0.1309E+01  0.4076E+01  0.4005E+01
      2.353  0.1493E+01  0.1314E+01  0.4186E+01  0.4103E+01
      2.427  0.1577E+01  0.1377E+01  0.4302E+01  0.4204E+01
      2.501  0.1642E+01  0.1582E+01  0.4423E+01  0.4321E+01
      2.574  0.1590E+01  0.1701E+01  0.4541E+01  0.4447E+01
      2.648  0.1613E+01  0.1636E+01  0.4660E+01  0.4567E+01
      2.722  0.1863E+01  0.1629E+01  0.4798E+01  0.4688E+01
      2.796  0.1952E+01  0.1869E+01  0.4942E+01  0.4826E+01
      2.870  0.1877E+01  0.1901E+01  0.5080E+01  0.4966E+01
      2.943  0.1809E+01  0.1766E+01  0.5214E+01  0.5097E+01
      3.017  0.1680E+01  0.1694E+01  0.5338E+01  0.5222E+01
      3.091  0.1600E+01  0.1695E+01  0.5456E+01  0.5347E+01
      3.165  0.1605E+01  0.1634E+01  0.5575E+01  0.5467E+01
      3.239  0.1565E+01  0.1546E+01  0.5690E+01  0.5582E+01
      3.312  0.1644E+01  0.1541E+01  0.5812E+01  0.5695E+01
      3.386  0.1958E+01  0.1670E+01  0.5956E+01  0.5819E+01
      3.460  0.1882E+01  0.1846E+01  0.6095E+01  0.5955E+01
      3.534  0.1598E+01  0.1812E+01  0.6213E+01  0.6089E+01
      3.608  0.1529E+01  0.1593E+01  0.6326E+01  0.6207E+01
      3.681  0.1806E+01  0.1376E+01  0.6460E+01  0.6308E+01
      3.755  0.2166E+01  0.1477E+01  0.6620E+01  0.6417E+01
      3.829  0.2247E+01  0.1952E+01  0.6786E+01  0.6561E+01
      3.903  0.2155E+01  0.2204E+01  0.6945E+01  0.6724E+01
      3.977  0.2001E+01  0.2131E+01  0.7093E+01  0.6882E+01
      4.050  0.1806E+01  0.2086E+01  0.7226E+01  0.7036E+01
      4.124  0.1651E+01  0.1943E+01  0.7348E+01  0.7179E+01
      4.198  0.1719E+01  0.1573E+01  0.7475E+01  0.7295E+01
      4.272  0.1776E+01  0.1556E+01  0.7606E+01  0.7410E+01
      4.346  0.1858E+01  0.1757E+01  0.7743E+01  0.7540E+01
      4.419  0.1887E+01  0.1857E+01  0.7883E+01  0.7677E+01
      4.493  0.2032E+01  0.1862E+01  0.8033E+01  0.7815E+01
      4.567  0.2322E+01  0.1874E+01  0.8204E+01  0.7953E+01
      4.641  0.2488E+01  0.2052E+01  0.8388E+01  0.8105E+01
      4.715  0.2357E+01  0.2268E+01  0.8562E+01  0.8272E+01
      4.788  0.2341E+01  0.2226E+01  0.8735E+01  0.8437E+01
      4.862  0.2590E+01  0.2132E+01  0.8926E+01  0.8594E+01
      4.936  0.2778E+01  0.2322E+01  0.9131E+01  0.8766E+01
      5.010  0.2507E+01  0.2615E+01  0.9316E+01  0.8959E+01
      5.084  0.2201E+01  0.2662E+01  0.9479E+01  0.9155E+01
      5.157  0.2234E+01  0.2384E+01  0.9644E+01  0.9331E+01
      5.231  0.2325E+01  0.2218E+01  0.9815E+01  0.9495E+01
      5.305  0.2326E+01  0.2185E+01  0.9987E+01  0.9656E+01
      5.379  0.2309E+01  0.2045E+01  0.1016E+02  0.9807E+01
      5.453  0.2415E+01  0.2050E+01  0.1034E+02  0.9959E+01
      5.526  0.2588E+01  0.2193E+01  0.1053E+02  0.1012E+02
      5.600  0.2612E+01  0.2235E+01  0.1072E+02  0.1029E+02
      5.674  0.2714E+01  0.2325E+01  0.1092E+02  0.1046E+02
      5.748  0.2748E+01  0.2297E+01  0.1112E+02  0.1063E+02
      5.822  0.2854E+01  0.2453E+01  0.1133E+02  0.1081E+02
      5.895  0.2891E+01  0.2631E+01  0.1155E+02  0.1100E+02
      5.969  0.2910E+01  0.2603E+01  0.1176E+02  0.1119E+02
      6.043  0.3080E+01  0.2727E+01  0.1199E+02  0.1140E+02
      6.117  0.3209E+01  0.2779E+01  0.1223E+02  0.1160E+02
      6.191  0.3254E+01  0.2741E+01  0.1247E+02  0.1180E+02
      6.264  0.3426E+01  0.2776E+01  0.1272E+02  0.1201E+02
      6.338  0.3748E+01  0.2872E+01  0.1300E+02  0.1222E+02
      6.412  0.3895E+01  0.2990E+01  0.1328E+02  0.1244E+02
      6.486  0.3923E+01  0.3093E+01  0.1357E+02  0.1267E+02
      6.560  0.4234E+01  0.2845E+01  0.1389E+02  0.1288E+02
      6.633  0.4323E+01  0.2955E+01  0.1421E+02  0.1310E+02
      6.707  0.4042E+01  0.3544E+01  0.1450E+02  0.1336E+02
      6.781  0.3756E+01  0.3642E+01  0.1478E+02  0.1363E+02
      6.855  0.3761E+01  0.3348E+01  0.1506E+02  0.1388E+02
      6.929  0.4031E+01  0.3125E+01  0.1536E+02  0.1411E+02
      7.002  0.4155E+01  0.3176E+01  0.1566E+02  0.1434E+02
      7.076  0.3955E+01  0.3463E+01  0.1596E+02  0.1460E+02
      7.150  0.3673E+01  0.3669E+01  0.1623E+02  0.1487E+02
      7.224  0.3591E+01  0.3629E+01  0.1649E+02  0.1514E+02
      7.298  0.3788E+01  0.3837E+01  0.1677E+02  0.1542E+02
      7.371  0.3882E+01  0.3981E+01  0.1706E+02  0.1571E+02
      7.445  0.3924E+01  0.3710E+01  0.1735E+02  0.1599E+02
      7.519  0.4128E+01  0.3329E+01  0.1765E+02  0.1623E+02
      7.593  0.4104E+01  0.3174E+01  0.1796E+02  0.1647E+02
      7.667  0.4222E+01  0.3313E+01  0.1827E+02  0.1671E+02
      7.740  0.5126E+01  0.3445E+01  0.1865E+02  0.1697E+02
      7.814  0.5839E+01  0.3592E+01  0.1908E+02  0.1723E+02
      7.888  0.6152E+01  0.3748E+01  0.1953E+02  0.1751E+02
      7.962  0.6692E+01  0.3738E+01  0.2003E+02  0.1779E+02
      8.036  0.7179E+01  0.3714E+01  0.2056E+02  0.1806E+02
      8.109  0.7190E+01  0.3816E+01  0.2109E+02  0.1834E+02
      8.183  0.6855E+01  0.4098E+01  0.2159E+02  0.1864E+02
      8.257  0.6188E+01  0.4596E+01  0.2205E+02  0.1898E+02
      8.331  0.5355E+01  0.4954E+01  0.2245E+02  0.1935E+02
      8.405  0.4861E+01  0.5383E+01  0.2281E+02  0.1975E+02
      8.478  0.5094E+01  0.5634E+01  0.2318E+02  0.2016E+02
      8.552  0.5557E+01  0.5605E+01  0.2359E+02  0.2058E+02
      8.626  0.5680E+01  0.5789E+01  0.2401E+02  0.2100E+02
      8.700  0.5364E+01  0.5600E+01  0.2441E+02  0.2142E+02
      8.774  0.4548E+01  0.4847E+01  0.2474E+02  0.2178E+02
      8.847  0.3979E+01  0.4383E+01  0.2504E+02  0.2210E+02
      8.921  0.3981E+01  0.4327E+01  0.2533E+02  0.2242E+02
      8.995  0.3971E+01  0.4371E+01  0.2563E+02  0.2274E+02
      9.069  0.3940E+01  0.4161E+01  0.2592E+02  0.2305E+02
      9.143  0.3795E+01  0.4194E+01  0.2620E+02  0.2336E+02
      9.216  0.3425E+01  0.4571E+01  0.2645E+02  0.2370E+02
      9.290  0.3145E+01  0.4942E+01  0.2668E+02  0.2406E+02
      9.364  0.3158E+01  0.4715E+01  0.2692E+02  0.2441E+02
      9.438  0.3431E+01  0.3978E+01  0.2717E+02  0.2470E+02
      9.512  0.4062E+01  0.3348E+01  0.2747E+02  0.2495E+02
      9.585  0.4485E+01  0.2866E+01  0.2780E+02  0.2516E+02
      9.659  0.4240E+01  0.2858E+01  0.2811E+02  0.2537E+02
      9.733  0.4192E+01  0.3084E+01  0.2842E+02  0.2560E+02
      9.807  0.5914E+01  0.3003E+01  0.2886E+02  0.2582E+02
      9.881  0.9663E+01  0.3142E+01  0.2957E+02  0.2606E+02
      9.954  0.1242E+02  0.3228E+01  0.3049E+02  0.2629E+02
     10.028  0.1138E+02  0.2973E+01  0.3133E+02  0.2651E+02
     10.102  0.9055E+01  0.2889E+01  0.3200E+02  0.2673E+02
     10.176  0.7323E+01  0.2891E+01  0.3254E+02  0.2694E+02
     10.250  0.6678E+01  0.2772E+01  0.3303E+02  0.2715E+02
     10.323  0.6345E+01  0.2758E+01  0.3350E+02  0.2735E+02
     10.397  0.5532E+01  0.3101E+01  0.3391E+02  0.2758E+02
     10.471  0.4187E+01  0.3332E+01  0.3422E+02  0.2782E+02
     10.545  0.3164E+01  0.3262E+01  0.3445E+02  0.2806E+02
     10.619  0.2911E+01  0.3271E+01  0.3467E+02  0.2831E+02
     10.692  0.2760E+01  0.3436E+01  0.3487E+02  0.2856E+02
     10.766  0.2494E+01  0.3421E+01  0.3506E+02  0.2881E+02
     10.840  0.2420E+01  0.3072E+01  0.3524E+02  0.2904E+02
     10.914  0.2308E+01  0.2959E+01  0.3541E+02  0.2926E+02
     10.988  0.2159E+01  0.3662E+01  0.3557E+02  0.2953E+02
     11.061  0.1939E+01  0.4463E+01  0.3571E+02  0.2986E+02
     11.135  0.1777E+01  0.5423E+01  0.3584E+02  0.3026E+02
     11.209  0.1773E+01  0.6951E+01  0.3597E+02  0.3077E+02
     11.283  0.1964E+01  0.7979E+01  0.3612E+02  0.3136E+02
     11.357  0.2390E+01  0.8344E+01  0.3629E+02  0.3198E+02
     11.430  0.2753E+01  0.9465E+01  0.3650E+02  0.3268E+02
     11.504  0.2638E+01  0.1092E+02  0.3669E+02  0.3348E+02
     11.578  0.2559E+01  0.1141E+02  0.3688E+02  0.3432E+02
     11.652  0.3090E+01  0.9670E+01  0.3711E+02  0.3504E+02
     11.725  0.3601E+01  0.7113E+01  0.3737E+02  0.3556E+02
     11.799  0.3670E+01  0.5019E+01  0.3765E+02  0.3593E+02
     11.873  0.3602E+01  0.3528E+01  0.3791E+02  0.3620E+02
     11.947  0.3492E+01  0.3088E+01  0.3817E+02  0.3642E+02
     12.021  0.3636E+01  0.3249E+01  0.3844E+02  0.3666E+02
     12.094  0.3862E+01  0.3441E+01  0.3872E+02  0.3692E+02
     12.168  0.4153E+01  0.3504E+01  0.3903E+02  0.3718E+02
     12.242  0.4743E+01  0.3255E+01  0.3938E+02  0.3742E+02
     12.316  0.5183E+01  0.3010E+01  0.3976E+02  0.3764E+02
     12.390  0.5320E+01  0.3099E+01  0.4016E+02  0.3787E+02
     12.463  0.4729E+01  0.3452E+01  0.4051E+02  0.3812E+02
     12.537  0.3971E+01  0.3862E+01  0.4080E+02  0.3841E+02
     12.611  0.3685E+01  0.3960E+01  0.4107E+02  0.3870E+02
     12.685  0.3838E+01  0.3897E+01  0.4135E+02  0.3899E+02
     12.759  0.3861E+01  0.4015E+01  0.4164E+02  0.3929E+02
     12.832  0.3769E+01  0.4292E+01  0.4192E+02  0.3960E+02
     12.906  0.3813E+01  0.4451E+01  0.4220E+02  0.3993E+02
     12.980  0.3647E+01  0.4271E+01  0.4247E+02  0.4025E+02
     13.054  0.3224E+01  0.4089E+01  0.4271E+02  0.4055E+02
     13.128  0.2957E+01  0.4400E+01  0.4293E+02  0.4087E+02
     13.201  0.2806E+01  0.4898E+01  0.4313E+02  0.4124E+02
     13.275  0.2521E+01  0.4949E+01  0.4332E+02  0.4160E+02
     13.349  0.2387E+01  0.4750E+01  0.4350E+02  0.4195E+02
     13.423  0.2663E+01  0.4495E+01  0.4369E+02  0.4228E+02
     13.497  0.2963E+01  0.4051E+01  0.4391E+02  0.4258E+02
     13.570  0.3009E+01  0.3735E+01  0.4413E+02  0.4286E+02
     13.644  0.2960E+01  0.3571E+01  0.4435E+02  0.4312E+02
     13.718  0.2799E+01  0.3222E+01  0.4456E+02  0.4336E+02
     13.792  0.2781E+01  0.3074E+01  0.4476E+02  0.4359E+02
     13.866  0.3053E+01  0.3321E+01  0.4499E+02  0.4383E+02
     13.939  0.3127E+01  0.3370E+01  0.4522E+02  0.4408E+02
     14.013  0.3257E+01  0.3072E+01  0.4546E+02  0.4431E+02
     14.087  0.3646E+01  0.2835E+01  0.4573E+02  0.4452E+02
     14.161  0.4112E+01  0.2892E+01  0.4603E+02  0.4473E+02
     14.235  0.4450E+01  0.2830E+01  0.4636E+02  0.4494E+02
     14.308  0.4382E+01  0.2989E+01  0.4669E+02  0.4516E+02
     14.382  0.4106E+01  0.3623E+01  0.4699E+02  0.4543E+02
     14.456  0.4187E+01  0.4328E+01  0.4730E+02  0.4575E+02
     14.530  0.4487E+01  0.4695E+01  0.4763E+02  0.4610E+02
     14.604  0.4602E+01  0.4665E+01  0.4797E+02  0.4644E+02
     14.677  0.4409E+01  0.4643E+01  0.4830E+02  0.4678E+02
     14.751  0.3857E+01  0.4566E+01  0.4858E+02  0.4712E+02
     14.825  0.3273E+01  0.4491E+01  0.4882E+02  0.4745E+02
     14.899  0.3100E+01  0.4449E+01  0.4905E+02  0.4778E+02
     14.973  0.3028E+01  0.4206E+01  0.4927E+02  0.4809E+02
     15.046  0.3025E+01  0.4050E+01  0.4950E+02  0.4839E+02
     15.120  0.3227E+01  0.3725E+01  0.4974E+02  0.4867E+02
     15.194  0.3307E+01  0.3329E+01  0.4998E+02  0.4891E+02
     15.268  0.3194E+01  0.3342E+01  0.5022E+02  0.4916E+02
     15.342  0.3096E+01  0.3314E+01  0.5045E+02  0.4940E+02
     15.415  0.3111E+01  0.3309E+01  0.5067E+02  0.4965E+02
     15.489  0.3202E+01  0.3335E+01  0.5091E+02  0.4989E+02
     15.563  0.3090E+01  0.3188E+01  0.5114E+02  0.5013E+02
     15.637  0.2856E+01  0.3236E+01  0.5135E+02  0.5037E+02
     15.711  0.2745E+01  0.3477E+01  0.5155E+02  0.5063E+02
     15.784  0.2724E+01  0.3523E+01  0.5175E+02  0.5089E+02
     15.858  0.2556E+01  0.3397E+01  0.5194E+02  0.5114E+02
     15.932  0.2391E+01  0.3407E+01  0.5212E+02  0.5139E+02
     16.006  0.2310E+01  0.3275E+01  0.5229E+02  0.5163E+02
     16.080  0.2444E+01  0.2913E+01  0.5247E+02  0.5185E+02
     16.153  0.2824E+01  0.2598E+01  0.5268E+02  0.5204E+02
     16.227  0.3415E+01  0.2288E+01  0.5293E+02  0.5221E+02
     16.301  0.3443E+01  0.2052E+01  0.5319E+02  0.5236E+02
     16.375  0.3108E+01  0.2121E+01  0.5342E+02  0.5251E+02
     16.449  0.3169E+01  0.2621E+01  0.5365E+02  0.5271E+02
     16.522  0.3401E+01  0.3047E+01  0.5390E+02  0.5293E+02
     16.596  0.3192E+01  0.3236E+01  0.5414E+02  0.5317E+02
     16.670  0.2795E+01  0.3428E+01  0.5434E+02  0.5343E+02
     16.744  0.2632E+01  0.3400E+01  0.5454E+02  0.5368E+02
     16.818  0.2675E+01  0.3023E+01  0.5474E+02  0.5390E+02
     16.891  0.2624E+01  0.2680E+01  0.5493E+02  0.5410E+02
     16.965  0.2308E+01  0.2756E+01  0.5510E+02  0.5430E+02
     17.039  0.2023E+01  0.2674E+01  0.5525E+02  0.5450E+02
     17.113  0.1634E+01  0.2596E+01  0.5537E+02  0.5469E+02
     17.187  0.1145E+01  0.2736E+01  0.5545E+02  0.5489E+02
     17.260  0.1016E+01  0.2490E+01  0.5553E+02  0.5508E+02
     17.334  0.1188E+01  0.1954E+01  0.5562E+02  0.5522E+02
     17.408  0.1146E+01  0.1828E+01  0.5570E+02  0.5536E+02
     17.482  0.8760E+00  0.1834E+01  0.5577E+02  0.5549E+02
     17.556  0.7417E+00  0.1657E+01  0.5582E+02  0.5561E+02
     17.629  0.5858E+00  0.1345E+01  0.5586E+02  0.5571E+02
     17.703  0.4852E+00  0.1042E+01  0.5590E+02  0.5579E+02
     17.777  0.3981E+00  0.8536E+00  0.5593E+02  0.5585E+02
     17.851  0.2578E+00  0.6945E+00  0.5595E+02  0.5590E+02
     17.925  0.1742E+00  0.4332E+00  0.5596E+02  0.5594E+02
     17.998  0.1581E+00  0.1838E+00  0.5597E+02  0.5595E+02
     18.072  0.1410E+00  0.1184E+00  0.5598E+02  0.5596E+02
     18.146  0.1182E+00  0.1666E+00  0.5599E+02  0.5597E+02
     18.220  0.6586E-01  0.1777E+00  0.5600E+02  0.5598E+02
     18.294  0.2171E-01  0.1264E+00  0.5600E+02  0.5599E+02
     18.367  0.5407E-02  0.5689E-01  0.5600E+02  0.5600E+02
     18.441  0.1123E-02  0.1670E-01  0.5600E+02  0.5600E+02
     18.515  0.2584E-03  0.4082E-02  0.5600E+02  0.5600E+02
     18.589  0.0000E+00  0.7654E-03  0.5600E+02  0.5600E+02
     18.663  0.0000E+00  0.0000E+00  0.5600E+02  0.5600E+02
     18.736  0.0000E+00  0.0000E+00  0.5600E+02  0.5600E+02
     18.810  0.0000E+00  0.0000E+00  0.5600E+02  0.5600E+02
     18.884  0.0000E+00  0.0000E+00  0.5600E+02  0.5600E+02
     18.958  0.0000E+00  0.0000E+00  0.5600E+02  0.5600E+02
     19.032  0.0000E+00  0.0000E+00  0.5600E+02  0.5600E+02
     19.105  0.0000E+00  0.0000E+00  0.5600E+02  0.5600E+02
     19.179  0.0000E+00  0.0000E+00  0.5600E+02  0.5600E+02
     19.253  0.0000E+00  0.0000E+00  0.5600E+02  0.5600E+02
     19.25303353     -2.88677924  301     10.23042888      1.00000000
     -2.887  0.0000E+00  0.0000E+00  0.0000E+00  0.0000E+00  0.0000E+00  0.0000E+00  0.0000E+00  0.0000E+00  0.0000E+00  0.0000E+00  0.0000E+00  0.0000E+00  0.0000E+00  0.0000E+00  0.0000E+00  0.0000E+00  0.0000E+00  0.0000E+00
     -2.813  0.0000E+00  0.0000E+00  0.0000E+00  0.0000E+00  0.0000E+00  0.0000E+00  0.0000E+00  0.0000E+00  0.0000E+00  0.0000E+00  0.0000E+00  0.0000E+00  0.0000E+00  0.0000E+00  0.0000E+00  0.0000E+00  0.0000E+00  0.0000E+00
     -2.739  0.0000E+00  0.0000E+00  0.0000E+00  0.0000E+00  0.0000E+00  0.0000E+00  0.0000E+00  0.0000E+00  0.0000E+00  0.0000E+00  0.0000E+00  0.0000E+00  0.0000E+00  0.0000E+00  0.0000E+00  0.0000E+00  0.0000E+00  0.0000E+00
     -2.665  0.0000E+00  0.0000E+00  0.0000E+00  0.0000E+00  0.0000E+00  0.0000E+00  0.0000E+00  0.0000E+00  0.0000E+00  0.0000E+00  0.0000E+00  0.0000E+00  0.0000E+00  0.0000E+00  0.0000E+00  0.0000E+00  0.0000E+00  0.0000E+00
     -2.592  0.0000E+00  0.0000E+00  0.0000E+00  0.0000E+00  0.0000E+00  0.0000E+00  0.0000E+00  0.0000E+00  0.0000E+00  0.0000E+00  0.0000E+00  0.0000E+00  0.0000E+00  0.0000E+00  0.0000E+00  0.0000E+00  0.0000E+00  0.0000E+00
     -2.518  0.0000E+00  0.0000E+00  0.0000E+00  0.0000E+00  0.0000E+00  0.0000E+00  0.0000E+00  0.0000E+00  0.0000E+00  0.0000E+00  0.0000E+00  0.0000E+00  0.0000E+00  0.0000E+00  0.0000E+00  0.0000E+00  0.0000E+00  0.0000E+00
     -2.444  0.0000E+00  0.0000E+00  0.0000E+00  0.0000E+00  0.0000E+00  0.0000E+00  0.0000E+00  0.0000E+00  0.0000E+00  0.0000E+00  0.0000E+00  0.0000E+00  0.0000E+00  0.0000E+00  0.0000E+00  0.0000E+00  0.0000E+00  0.0000E+00
     -2.370  0.0000E+00  0.0000E+00  0.0000E+00  0.0000E+00  0.0000E+00  0.0000E+00  0.0000E+00  0.0000E+00  0.0000E+00  0.0000E+00  0.0000E+00  0.0000E+00  0.0000E+00  0.0000E+00  0.0000E+00  0.0000E+00  0.0000E+00  0.0000E+00
     -2.296  0.2199E-06  0.7643E-07  0.5570E-21  0.9367E-19  0.5053E-09  0.7839E-10  0.5570E-21  0.9367E-19  0.6510E-16  0.7203E-19  0.4621E-16  0.1137E-17  0.1803E-10  0.1750E-10  0.4621E-16  0.1137E-17  0.5852E-15  0.6116E-16
     -2.223  0.2145E-05  0.7463E-06  0.4783E-08  0.1706E-08  0.1048E-07  0.2734E-08  0.4783E-08  0.1706E-08  0.2218E-15  0.5296E-17  0.2750E-10  0.5570E-11  0.2073E-09  0.1820E-09  0.2750E-10  0.5570E-11  0.2260E-10  0.6652E-11
     -2.149  0.1096E-04  0.3818E-05  0.3649E-07  0.1301E-07  0.6825E-07  0.1921E-07  0.3649E-07  0.1301E-07  0.1652E-09  0.5730E-10  0.3915E-09  0.1035E-09  0.1079E-08  0.9400E-09  0.3915E-09  0.1035E-09  0.1233E-09  0.3625E-10
     -2.075  0.4699E-04  0.1636E-04  0.1664E-06  0.5738E-07  0.2984E-06  0.8454E-07  0.1664E-06  0.5738E-07  0.9033E-09  0.3129E-09  0.1973E-08  0.5283E-09  0.4683E-08  0.4012E-08  0.1973E-08  0.5283E-09  0.6003E-09  0.1446E-09
     -2.001  0.1987E-03  0.7051E-04  0.7236E-06  0.2514E-06  0.1317E-05  0.3675E-06  0.7236E-06  0.2514E-06  0.4009E-08  0.1247E-08  0.8647E-08  0.2178E-08  0.2033E-07  0.1749E-07  0.8647E-08  0.2178E-08  0.2864E-08  0.7724E-09
     -1.927  0.7670E-03  0.2946E-03  0.3033E-05  0.1119E-05  0.5352E-05  0.1615E-05  0.3033E-05  0.1119E-05  0.1784E-07  0.6064E-08  0.3746E-07  0.1021E-07  0.7948E-07  0.7373E-07  0.3746E-07  0.1021E-07  0.1185E-07  0.3662E-08
     -1.854  0.2371E-02  0.1076E-02  0.1119E-04  0.4572E-05  0.1878E-04  0.6491E-05  0.1119E-04  0.4572E-05  0.7234E-07  0.2674E-07  0.1458E-06  0.4395E-07  0.2545E-06  0.2715E-06  0.1458E-06  0.4395E-07  0.4326E-07  0.1474E-07
     -1.780  0.5191E-02  0.3006E-02  0.3150E-04  0.1568E-04  0.4986E-04  0.2173E-04  0.3150E-04  0.1568E-04  0.2537E-06  0.1046E-06  0.4694E-06  0.1653E-06  0.5952E-06  0.7717E-06  0.4694E-06  0.1653E-06  0.1252E-06  0.5015E-07
     -1.706  0.7706E-02  0.5789E-02  0.6288E-04  0.3942E-04  0.9363E-04  0.5320E-04  0.6288E-04  0.3942E-04  0.6403E-06  0.3339E-06  0.1099E-05  0.4974E-06  0.1047E-05  0.1541E-05  0.1099E-05  0.4974E-06  0.3207E-06  0.1358E-06
     -1.632  0.8956E-02  0.7694E-02  0.1046E-03  0.7195E-04  0.1460E-03  0.9335E-04  0.1046E-03  0.7195E-04  0.1259E-05  0.7565E-06  0.2053E-05  0.1075E-05  0.1824E-05  0.2287E-05  0.2053E-05  0.1075E-05  0.8711E-06  0.3546E-06
     -1.558  0.1149E-01  0.8919E-02  0.1822E-03  0.1205E-03  0.2485E-03  0.1504E-03  0.1822E-03  0.1205E-03  0.2656E-05  0.1486E-05  0.4132E-05  0.2022E-05  0.3385E-05  0.3380E-05  0.4132E-05  0.2022E-05  0.1956E-05  0.9421E-06
     -1.485  0.1474E-01  0.1195E-01  0.2723E-03  0.2074E-03  0.3787E-03  0.2626E-03  0.2723E-03  0.2074E-03  0.5045E-05  0.3174E-05  0.7553E-05  0.4201E-05  0.4792E-05  0.5318E-05  0.7553E-05  0.4201E-05  0.2819E-05  0.1848E-05
     -1.411  0.1369E-01  0.1399E-01  0.2869E-03  0.2752E-03  0.4136E-03  0.3614E-03  0.2869E-03  0.2752E-03  0.6782E-05  0.5368E-05  0.9806E-05  0.7004E-05  0.5004E-05  0.6399E-05  0.9806E-05  0.7004E-05  0.2888E-05  0.2285E-05
     -1.337  0.1226E-01  0.1188E-01  0.3202E-03  0.2731E-03  0.4761E-03  0.3658E-03  0.3202E-03  0.2731E-03  0.9435E-05  0.6836E-05  0.1344E-04  0.8645E-05  0.6586E-05  0.6139E-05  0.1344E-04  0.8645E-05  0.4085E-05  0.2374E-05
     -1.263  0.1585E-01  0.1198E-01  0.5031E-03  0.3519E-03  0.6934E-03  0.4636E-03  0.5031E-03  0.3519E-03  0.1543E-04  0.1043E-04  0.2238E-04  0.1314E-04  0.1150E-04  0.8490E-05  0.2238E-04  0.1314E-04  0.8624E-05  0.4116E-05
     -1.189  0.1813E-01  0.1599E-01  0.6709E-03  0.5507E-03  0.7630E-03  0.6760E-03  0.6709E-03  0.5507E-03  0.1965E-04  0.1608E-04  0.2801E-04  0.2076E-04  0.1642E-04  0.1450E-04  0.2801E-04  0.2076E-04  0.1494E-04  0.8538E-05
     -1.116  0.1678E-01  0.1715E-01  0.7050E-03  0.6694E-03  0.7236E-03  0.7349E-03  0.7050E-03  0.6694E-03  0.2295E-04  0.1904E-04  0.3134E-04  0.2399E-04  0.1816E-04  0.1930E-04  0.3134E-04  0.2399E-04  0.1739E-04  0.1295E-04
     -1.042  0.1657E-01  0.1580E-01  0.7270E-03  0.6733E-03  0.9222E-03  0.7736E-03  0.7270E-03  0.6733E-03  0.3240E-04  0.2337E-04  0.4372E-04  0.2850E-04  0.1932E-04  0.1947E-04  0.4372E-04  0.2850E-04  0.1540E-04  0.1309E-04
     -0.968  0.1830E-01  0.1604E-01  0.8773E-03  0.7304E-03  0.1114E-02  0.9740E-03  0.8773E-03  0.7304E-03  0.4951E-04  0.3497E-04  0.5937E-04  0.4191E-04  0.2271E-04  0.1955E-04  0.5937E-04  0.4191E-04  0.1683E-04  0.1179E-04
     -0.894  0.1785E-01  0.1760E-01  0.9690E-03  0.9090E-03  0.1027E-02  0.1094E-02  0.9690E-03  0.9090E-03  0.5880E-04  0.5109E-04  0.6459E-04  0.5647E-04  0.2357E-04  0.2288E-04  0.6459E-04  0.5647E-04  0.2055E-04  0.1435E-04
     -0.820  0.1530E-01  0.1633E-01  0.9042E-03  0.9267E-03  0.9856E-03  0.1025E-02  0.9042E-03  0.9267E-03  0.4988E-04  0.5229E-04  0.6512E-04  0.5853E-04  0.2496E-04  0.2333E-04  0.6512E-04  0.5853E-04  0.2600E-04  0.1725E-04
     -0.747  0.1780E-01  0.1458E-01  0.1178E-02  0.9088E-03  0.1310E-02  0.1068E-02  0.1178E-02  0.9088E-03  0.6049E-04  0.4557E-04  0.8757E-04  0.6004E-04  0.4032E-04  0.2721E-04  0.8757E-04  0.6004E-04  0.4445E-04  0.2398E-04
     -0.673  0.2204E-01  0.1787E-01  0.1589E-02  0.1279E-02  0.1722E-02  0.1425E-02  0.1589E-02  0.1279E-02  0.9352E-04  0.6627E-04  0.1126E-03  0.8184E-04  0.6474E-04  0.4621E-04  0.1126E-03  0.8184E-04  0.6254E-04  0.4028E-04
     -0.599  0.2144E-01  0.2110E-01  0.1597E-02  0.1590E-02  0.1878E-02  0.1860E-02  0.1597E-02  0.1590E-02  0.1167E-03  0.9679E-04  0.1142E-03  0.1036E-03  0.7704E-04  0.6492E-04  0.1142E-03  0.1036E-03  0.5921E-04  0.4925E-04
     -0.525  0.2072E-01  0.2003E-01  0.1649E-02  0.1561E-02  0.1951E-02  0.1962E-02  0.1649E-02  0.1561E-02  0.1377E-03  0.1147E-03  0.1385E-03  0.1129E-03  0.7532E-04  0.6614E-04  0.1385E-03  0.1129E-03  0.5936E-04  0.4510E-04
     -0.451  0.2280E-01  0.2014E-01  0.1915E-02  0.1702E-02  0.2318E-02  0.2080E-02  0.1915E-02  0.1702E-02  0.1624E-03  0.1341E-03  0.1958E-03  0.1458E-03  0.7686E-04  0.6515E-04  0.1958E-03  0.1458E-03  0.7065E-04  0.5036E-04
     -0.378  0.2059E-01  0.2111E-01  0.1702E-02  0.1834E-02  0.2446E-02  0.2451E-02  0.1702E-02  0.1834E-02  0.1545E-03  0.1520E-03  0.2066E-03  0.1883E-03  0.7176E-04  0.6655E-04  0.2066E-03  0.1883E-03  0.5853E-04  0.5281E-04
     -0.304  0.1559E-01  0.1648E-01  0.1419E-02  0.1461E-02  0.1971E-02  0.2147E-02  0.1419E-02  0.1461E-02  0.1454E-03  0.1375E-03  0.1898E-03  0.1722E-03  0.5727E-04  0.5279E-04  0.1898E-03  0.1722E-03  0.4891E-04  0.3788E-04
     -0.230  0.1687E-01  0.1383E-01  0.1883E-02  0.1442E-02  0.1959E-02  0.1788E-02  0.1883E-02  0.1442E-02  0.2110E-03  0.1509E-03  0.2316E-03  0.1731E-03  0.7268E-04  0.4921E-04  0.2316E-03  0.1731E-03  0.7569E-04  0.4059E-04
     -0.156  0.2126E-01  0.1737E-01  0.2613E-02  0.2102E-02  0.2585E-02  0.2291E-02  0.2613E-02  0.2102E-02  0.2974E-03  0.2239E-03  0.2822E-03  0.2297E-03  0.1282E-03  0.8465E-04  0.2822E-03  0.2297E-03  0.1235E-03  0.7219E-04
     -0.082  0.2358E-01  0.2154E-01  0.2963E-02  0.2775E-02  0.3489E-02  0.3257E-02  0.2963E-02  0.2775E-02  0.3098E-03  0.2839E-03  0.3264E-03  0.2835E-03  0.1766E-03  0.1371E-03  0.3264E-03  0.2835E-03  0.1633E-03  0.1129E-03
     -0.009  0.2265E-01  0.2216E-01  0.2853E-02  0.2885E-02  0.4023E-02  0.4004E-02  0.2853E-02  0.2885E-02  0.2883E-03  0.2723E-03  0.3729E-03  0.3244E-03  0.1768E-03  0.1532E-03  0.3729E-03  0.3244E-03  0.1663E-03  0.1304E-03
      0.065  0.2218E-01  0.2019E-01  0.3072E-02  0.2783E-02  0.3890E-02  0.3908E-02  0.3072E-02  0.2783E-02  0.3630E-03  0.2885E-03  0.4233E-03  0.3562E-03  0.1699E-03  0.1368E-03  0.4233E-03  0.3562E-03  0.1715E-03  0.1232E-03
      0.139  0.2230E-01  0.2073E-01  0.3252E-02  0.3126E-02  0.4256E-02  0.4117E-02  0.3252E-02  0.3126E-02  0.4147E-03  0.3753E-03  0.4919E-03  0.4243E-03  0.1825E-03  0.1475E-03  0.4919E-03  0.4243E-03  0.1759E-03  0.1305E-03
      0.213  0.1858E-01  0.1906E-01  0.2718E-02  0.2934E-02  0.4304E-02  0.4453E-02  0.2718E-02  0.2934E-02  0.3952E-03  0.3686E-03  0.4916E-03  0.4459E-03  0.1641E-03  0.1471E-03  0.4916E-03  0.4459E-03  0.1344E-03  0.1213E-03
      0.287  0.1673E-01  0.1458E-01  0.2795E-02  0.2394E-02  0.3998E-02  0.3971E-02  0.2795E-02  0.2394E-02  0.5068E-03  0.3648E-03  0.5475E-03  0.4162E-03  0.1400E-03  0.1142E-03  0.5475E-03  0.4162E-03  0.1213E-03  0.8850E-04
      0.360  0.1825E-01  0.1539E-01  0.3346E-02  0.2880E-02  0.4937E-02  0.4643E-02  0.3346E-02  0.2880E-02  0.6486E-03  0.5144E-03  0.6997E-03  0.5617E-03  0.1618E-03  0.1196E-03  0.6997E-03  0.5617E-03  0.1466E-03  0.9590E-04
      0.434  0.1880E-01  0.1778E-01  0.3632E-02  0.3503E-02  0.6046E-02  0.5938E-02  0.3632E-02  0.3503E-02  0.7032E-03  0.6371E-03  0.8021E-03  0.7411E-03  0.2011E-03  0.1542E-03  0.8021E-03  0.7411E-03  0.1682E-03  0.1191E-03
      0.508  0.1916E-01  0.1785E-01  0.4289E-02  0.3898E-02  0.6266E-02  0.6287E-02  0.4289E-02  0.3898E-02  0.7265E-03  0.6709E-03  0.9052E-03  0.8044E-03  0.2239E-03  0.1822E-03  0.9052E-03  0.8044E-03  0.2261E-03  0.1468E-03
      0.582  0.1906E-01  0.1775E-01  0.5015E-02  0.4631E-02  0.6044E-02  0.6119E-02  0.5015E-02  0.4631E-02  0.7262E-03  0.6673E-03  0.9954E-03  0.8713E-03  0.2168E-03  0.1904E-03  0.9954E-03  0.8713E-03  0.2951E-03  0.2010E-03
      0.656  0.1644E-01  0.1583E-01  0.5017E-02  0.4856E-02  0.5299E-02  0.5212E-02  0.5017E-02  0.4856E-02  0.7388E-03  0.6490E-03  0.9824E-03  0.8620E-03  0.1992E-03  0.1796E-03  0.9824E-03  0.8620E-03  0.2860E-03  0.2166E-03
      0.729  0.1362E-01  0.1268E-01  0.5165E-02  0.4717E-02  0.4418E-02  0.4373E-02  0.5165E-02  0.4717E-02  0.8549E-03  0.6807E-03  0.9860E-03  0.8260E-03  0.2019E-03  0.1703E-03  0.9860E-03  0.8260E-03  0.2569E-03  0.1883E-03
      0.803  0.1393E-01  0.1194E-01  0.5787E-02  0.5260E-02  0.4702E-02  0.4472E-02  0.5787E-02  0.5260E-02  0.1200E-02  0.8909E-03  0.1206E-02  0.9572E-03  0.2228E-03  0.1834E-03  0.1206E-02  0.9572E-03  0.2479E-03  0.1845E-03