  16  16   1   0
  0.1263072E+02  0.3635123E-09  0.3635123E-09  0.1529361E-08  0.5000000E-15
  1.000000000000000E-004
  CAR 
 unknown system                          
     18.74630266     -3.03304792  301      9.83856964      1.00000000
     -3.033  0.0000E+00  0.0000E+00  0.0000E+00  0.0000E+00
     -2.960  0.0000E+00  0.0000E+00  0.0000E+00  0.0000E+00
     -2.888  0.0000E+00  0.0000E+00  0.0000E+00  0.0000E+00
     -2.815  0.0000E+00  0.0000E+00  0.0000E+00  0.0000E+00
     -2.743  0.0000E+00  0.0000E+00  0.0000E+00  0.0000E+00
     -2.670  0.0000E+00  0.0000E+00  0.0000E+00  0.0000E+00
     -2.597  0.0000E+00  0.0000E+00  0.0000E+00  0.0000E+00
     -2.525  0.0000E+00  0.0000E+00  0.0000E+00  0.0000E+00
     -2.452  0.7582E-05  0.2868E-05  0.5504E-06  0.2082E-06
     -2.380  0.8288E-04  0.2811E-04  0.6567E-05  0.2249E-05
     -2.307  0.3843E-03  0.1422E-03  0.3446E-04  0.1257E-04
     -2.234  0.1555E-02  0.5943E-03  0.1473E-03  0.5571E-04
     -2.162  0.6469E-02  0.2500E-02  0.6169E-03  0.2372E-03
     -2.089  0.2443E-01  0.1021E-01  0.2391E-02  0.9780E-03
     -2.017  0.7431E-01  0.3647E-01  0.7785E-02  0.3625E-02
     -1.944  0.1615E+00  0.1003E+00  0.1951E-01  0.1091E-01
     -1.871  0.2410E+00  0.1921E+00  0.3701E-01  0.2485E-01
     -1.799  0.2864E+00  0.2575E+00  0.5780E-01  0.4355E-01
     -1.726  0.3746E+00  0.3066E+00  0.8500E-01  0.6580E-01
     -1.654  0.4794E+00  0.4155E+00  0.1198E+00  0.9597E-01
     -1.581  0.4496E+00  0.4840E+00  0.1524E+00  0.1311E+00
     -1.508  0.4228E+00  0.4197E+00  0.1831E+00  0.1616E+00
     -1.436  0.5532E+00  0.4451E+00  0.2233E+00  0.1939E+00
     -1.363  0.6282E+00  0.5949E+00  0.2690E+00  0.2371E+00
     -1.291  0.5908E+00  0.6368E+00  0.3119E+00  0.2834E+00
     -1.218  0.6020E+00  0.6000E+00  0.3556E+00  0.3270E+00
     -1.146  0.6713E+00  0.6288E+00  0.4044E+00  0.3726E+00
     -1.073  0.6520E+00  0.6939E+00  0.4517E+00  0.4230E+00
     -1.000  0.5818E+00  0.6443E+00  0.4940E+00  0.4698E+00
     -0.928  0.7098E+00  0.6090E+00  0.5456E+00  0.5140E+00
     -0.855  0.8740E+00  0.7744E+00  0.6090E+00  0.5703E+00
     -0.783  0.8551E+00  0.9070E+00  0.6711E+00  0.6362E+00
     -0.710  0.8581E+00  0.8733E+00  0.7335E+00  0.6997E+00
     -0.637  0.9525E+00  0.9121E+00  0.8026E+00  0.7659E+00
     -0.565  0.8518E+00  0.9475E+00  0.8645E+00  0.8347E+00
     -0.492  0.6837E+00  0.7436E+00  0.9142E+00  0.8887E+00
     -0.420  0.7908E+00  0.6874E+00  0.9717E+00  0.9387E+00
     -0.347  0.1013E+01  0.9079E+00  0.1045E+01  0.1005E+01
     -0.274  0.1140E+01  0.1143E+01  0.1128E+01  0.1088E+01
     -0.202  0.1124E+01  0.1181E+01  0.1210E+01  0.1173E+01
     -0.129  0.1142E+01  0.1120E+01  0.1293E+01  0.1255E+01
     -0.057  0.1163E+01  0.1195E+01  0.1377E+01  0.1342E+01
      0.016  0.1008E+01  0.1102E+01  0.1450E+01  0.1422E+01
      0.089  0.9936E+00  0.9241E+00  0.1523E+01  0.1489E+01
      0.161  0.1148E+01  0.1096E+01  0.1606E+01  0.1568E+01
      0.234  0.1251E+01  0.1286E+01  0.1697E+01  0.1662E+01
      0.306  0.1348E+01  0.1355E+01  0.1795E+01  0.1760E+01
      0.379  0.1390E+01  0.1409E+01  0.1896E+01  0.1863E+01
      0.452  0.1271E+01  0.1296E+01  0.1988E+01  0.1957E+01
      0.524  0.1202E+01  0.1180E+01  0.2075E+01  0.2042E+01
      0.597  0.1326E+01  0.1273E+01  0.2172E+01  0.2135E+01
      0.669  0.1498E+01  0.1479E+01  0.2280E+01  0.2242E+01
      0.742  0.1421E+01  0.1506E+01  0.2384E+01  0.2352E+01
      0.815  0.1236E+01  0.1276E+01  0.2473E+01  0.2444E+01
      0.887  0.1139E+01  0.1184E+01  0.2556E+01  0.2530E+01
      0.960  0.9631E+00  0.1007E+01  0.2626E+01  0.2604E+01
      1.032  0.9307E+00  0.8775E+00  0.2694E+01  0.2667E+01
      1.105  0.1120E+01  0.1029E+01  0.2775E+01  0.2742E+01
      1.178  0.1420E+01  0.1340E+01  0.2878E+01  0.2840E+01
      1.250  0.1492E+01  0.1490E+01  0.2987E+01  0.2948E+01
      1.323  0.1298E+01  0.1264E+01  0.3081E+01  0.3040E+01
      1.395  0.1257E+01  0.1191E+01  0.3172E+01  0.3126E+01
      1.468  0.1231E+01  0.1186E+01  0.3262E+01  0.3212E+01
      1.541  0.1323E+01  0.1154E+01  0.3358E+01  0.3296E+01
      1.613  0.1602E+01  0.1319E+01  0.3474E+01  0.3392E+01
      1.686  0.1689E+01  0.1602E+01  0.3597E+01  0.3509E+01
      1.758  0.1452E+01  0.1608E+01  0.3702E+01  0.3625E+01
      1.831  0.1323E+01  0.1352E+01  0.3799E+01  0.3724E+01
      1.904  0.1280E+01  0.1343E+01  0.3892E+01  0.3821E+01
      1.976  0.1313E+01  0.1399E+01  0.3987E+01  0.3923E+01
      2.049  0.1450E+01  0.1335E+01  0.4092E+01  0.4020E+01
      2.121  0.1532E+01  0.1352E+01  0.4204E+01  0.4118E+01
      2.194  0.1625E+01  0.1425E+01  0.4322E+01  0.4222E+01
      2.267  0.1685E+01  0.1654E+01  0.4444E+01  0.4342E+01
      2.339  0.1625E+01  0.1755E+01  0.4562E+01  0.4469E+01
      2.412  0.1686E+01  0.1667E+01  0.4685E+01  0.4590E+01
      2.484  0.1923E+01  0.1695E+01  0.4824E+01  0.4713E+01
      2.557  0.1961E+01  0.1917E+01  0.4967E+01  0.4853E+01
      2.630  0.1901E+01  0.1895E+01  0.5105E+01  0.4990E+01
      2.702  0.1818E+01  0.1777E+01  0.5237E+01  0.5119E+01
      2.775  0.1678E+01  0.1712E+01  0.5359E+01  0.5244E+01
      2.847  0.1614E+01  0.1702E+01  0.5476E+01  0.5367E+01
      2.920  0.1633E+01  0.1636E+01  0.5595E+01  0.5486E+01
      2.993  0.1580E+01  0.1567E+01  0.5710E+01  0.5600E+01
      3.065  0.1720E+01  0.1580E+01  0.5835E+01  0.5715E+01
      3.138  0.2003E+01  0.1728E+01  0.5980E+01  0.5840E+01
      3.210  0.1848E+01  0.1871E+01  0.6114E+01  0.5976E+01
      3.283  0.1584E+01  0.1787E+01  0.6229E+01  0.6106E+01
      3.356  0.1577E+01  0.1566E+01  0.6344E+01  0.6220E+01
      3.428  0.1896E+01  0.1376E+01  0.6482E+01  0.6320E+01
      3.501  0.2245E+01  0.1536E+01  0.6645E+01  0.6432E+01
      3.573  0.2310E+01  0.2046E+01  0.6813E+01  0.6580E+01
      3.646  0.2190E+01  0.2279E+01  0.6972E+01  0.6746E+01
      3.719  0.1999E+01  0.2171E+01  0.7117E+01  0.6903E+01
      3.791  0.1806E+01  0.2120E+01  0.7248E+01  0.7057E+01
      3.864  0.1682E+01  0.1929E+01  0.7370E+01  0.7198E+01
      3.936  0.1745E+01  0.1564E+01  0.7497E+01  0.7311E+01
      4.009  0.1798E+01  0.1593E+01  0.7628E+01  0.7427E+01
      4.082  0.1920E+01  0.1777E+01  0.7767E+01  0.7556E+01
      4.154  0.1975E+01  0.1903E+01  0.7911E+01  0.7694E+01
      4.227  0.2138E+01  0.1947E+01  0.8066E+01  0.7836E+01
      4.299  0.2408E+01  0.1963E+01  0.8241E+01  0.7979E+01
      4.372  0.2472E+01  0.2108E+01  0.8421E+01  0.8132E+01
      4.445  0.2332E+01  0.2290E+01  0.8590E+01  0.8298E+01
      4.517  0.2423E+01  0.2192E+01  0.8766E+01  0.8457E+01
      4.590  0.2713E+01  0.2160E+01  0.8963E+01  0.8614E+01
      4.662  0.2798E+01  0.2410E+01  0.9167E+01  0.8789E+01
      4.735  0.2489E+01  0.2656E+01  0.9347E+01  0.8982E+01
      4.808  0.2226E+01  0.2648E+01  0.9509E+01  0.9174E+01
      4.880  0.2235E+01  0.2382E+01  0.9672E+01  0.9348E+01
      4.953  0.2300E+01  0.2240E+01  0.9839E+01  0.9510E+01
      5.025  0.2351E+01  0.2172E+01  0.1001E+02  0.9668E+01
      5.098  0.2375E+01  0.2005E+01  0.1018E+02  0.9814E+01
      5.171  0.2482E+01  0.2064E+01  0.1036E+02  0.9964E+01
      5.243  0.2604E+01  0.2237E+01  0.1055E+02  0.1013E+02
      5.316  0.2635E+01  0.2274E+01  0.1074E+02  0.1029E+02
      5.388  0.2728E+01  0.2325E+01  0.1094E+02  0.1046E+02
      5.461  0.2766E+01  0.2289E+01  0.1114E+02  0.1063E+02
      5.533  0.2904E+01  0.2485E+01  0.1135E+02  0.1081E+02
      5.606  0.2918E+01  0.2654E+01  0.1156E+02  0.1100E+02
      5.679  0.2938E+01  0.2613E+01  0.1178E+02  0.1119E+02
      5.751  0.3101E+01  0.2755E+01  0.1200E+02  0.1139E+02
      5.824  0.3235E+01  0.2797E+01  0.1224E+02  0.1159E+02
      5.896  0.3301E+01  0.2718E+01  0.1248E+02  0.1179E+02
      5.969  0.3466E+01  0.2740E+01  0.1273E+02  0.1199E+02
      6.042  0.3746E+01  0.2880E+01  0.1300E+02  0.1220E+02
      6.114  0.3925E+01  0.3008E+01  0.1329E+02  0.1242E+02
      6.187  0.3971E+01  0.3117E+01  0.1358E+02  0.1264E+02
      6.259  0.4227E+01  0.2890E+01  0.1388E+02  0.1285E+02
      6.332  0.4286E+01  0.2871E+01  0.1419E+02  0.1306E+02
      6.405  0.4100E+01  0.3424E+01  0.1449E+02  0.1331E+02
      6.477  0.3920E+01  0.3631E+01  0.1478E+02  0.1357E+02
      6.550  0.3917E+01  0.3398E+01  0.1506E+02  0.1382E+02
      6.622  0.4112E+01  0.3117E+01  0.1536E+02  0.1405E+02
      6.695  0.4259E+01  0.3122E+01  0.1567E+02  0.1427E+02
      6.768  0.4106E+01  0.3386E+01  0.1597E+02  0.1452E+02
      6.840  0.3811E+01  0.3671E+01  0.1624E+02  0.1479E+02
      6.913  0.3727E+01  0.3632E+01  0.1652E+02  0.1505E+02
      6.985  0.3905E+01  0.3765E+01  0.1680E+02  0.1532E+02
      7.058  0.3975E+01  0.4034E+01  0.1709E+02  0.1562E+02
      7.131  0.4075E+01  0.3852E+01  0.1738E+02  0.1590E+02
      7.203  0.4263E+01  0.3416E+01  0.1769E+02  0.1615E+02
      7.276  0.4195E+01  0.3179E+01  0.1800E+02  0.1638E+02
      7.348  0.4460E+01  0.3267E+01  0.1832E+02  0.1661E+02
      7.421  0.5428E+01  0.3399E+01  0.1872E+02  0.1686E+02
      7.494  0.6068E+01  0.3506E+01  0.1916E+02  0.1712E+02
      7.566  0.6441E+01  0.3642E+01  0.1963E+02  0.1738E+02
      7.639  0.7059E+01  0.3749E+01  0.2014E+02  0.1765E+02
      7.711  0.7456E+01  0.3748E+01  0.2068E+02  0.1793E+02
      7.784  0.7362E+01  0.3828E+01  0.2121E+02  0.1820E+02
      7.857  0.6928E+01  0.3971E+01  0.2172E+02  0.1849E+02
      7.929  0.6174E+01  0.4459E+01  0.2217E+02  0.1882E+02
      8.002  0.5377E+01  0.4976E+01  0.2256E+02  0.1918E+02
      8.074  0.5098E+01  0.5229E+01  0.2293E+02  0.1956E+02
      8.147  0.5495E+01  0.5408E+01  0.2333E+02  0.1995E+02
      8.220  0.5879E+01  0.5389E+01  0.2375E+02  0.2034E+02
      8.292  0.5837E+01  0.5517E+01  0.2418E+02  0.2074E+02
      8.365  0.5248E+01  0.5867E+01  0.2456E+02  0.2117E+02
      8.437  0.4407E+01  0.5372E+01  0.2488E+02  0.2156E+02
      8.510  0.4119E+01  0.4553E+01  0.2518E+02  0.2189E+02
      8.583  0.4153E+01  0.4325E+01  0.2548E+02  0.2220E+02
      8.655  0.4118E+01  0.4440E+01  0.2578E+02  0.2253E+02
      8.728  0.4038E+01  0.4361E+01  0.2607E+02  0.2284E+02
      8.800  0.3734E+01  0.4207E+01  0.2634E+02  0.2315E+02
      8.873  0.3382E+01  0.4390E+01  0.2659E+02  0.2347E+02
      8.946  0.3283E+01  0.4738E+01  0.2683E+02  0.2381E+02
      9.018  0.3470E+01  0.4882E+01  0.2708E+02  0.2417E+02
      9.091  0.3996E+01  0.4553E+01  0.2737E+02  0.2450E+02
      9.163  0.4617E+01  0.3884E+01  0.2771E+02  0.2478E+02
      9.236  0.4654E+01  0.3218E+01  0.2804E+02  0.2501E+02
      9.309  0.4678E+01  0.2778E+01  0.2838E+02  0.2522E+02
      9.381  0.6431E+01  0.2912E+01  0.2885E+02  0.2543E+02
      9.454  0.1022E+02  0.3088E+01  0.2959E+02  0.2565E+02
      9.526  0.1267E+02  0.3035E+01  0.3051E+02  0.2587E+02
      9.599  0.1139E+02  0.3233E+01  0.3134E+02  0.2611E+02
      9.672  0.9091E+01  0.3197E+01  0.3200E+02  0.2634E+02
      9.744  0.7326E+01  0.2971E+01  0.3253E+02  0.2655E+02
      9.817  0.6619E+01  0.3052E+01  0.3301E+02  0.2678E+02
      9.889  0.6330E+01  0.3055E+01  0.3348E+02  0.2700E+02
      9.962  0.5635E+01  0.2882E+01  0.3389E+02  0.2721E+02
     10.035  0.4352E+01  0.2934E+01  0.3420E+02  0.2742E+02
     10.107  0.3270E+01  0.3287E+01  0.3444E+02  0.2766E+02
     10.180  0.2927E+01  0.3398E+01  0.3465E+02  0.2791E+02
     10.252  0.2739E+01  0.3362E+01  0.3485E+02  0.2815E+02
     10.325  0.2508E+01  0.3488E+01  0.3503E+02  0.2840E+02
     10.398  0.2476E+01  0.3671E+01  0.3521E+02  0.2867E+02
     10.470  0.2364E+01  0.3444E+01  0.3539E+02  0.2892E+02
     10.543  0.2210E+01  0.3027E+01  0.3555E+02  0.2914E+02
     10.615  0.1991E+01  0.3312E+01  0.3569E+02  0.2938E+02
     10.688  0.1813E+01  0.4246E+01  0.3582E+02  0.2969E+02
     10.761  0.1829E+01  0.5152E+01  0.3596E+02  0.3006E+02
     10.833  0.2021E+01  0.6423E+01  0.3610E+02  0.3053E+02
     10.906  0.2441E+01  0.7753E+01  0.3628E+02  0.3109E+02
     10.978  0.2827E+01  0.8123E+01  0.3649E+02  0.3168E+02
     11.051  0.2625E+01  0.8802E+01  0.3668E+02  0.3232E+02
     11.124  0.2545E+01  0.1021E+02  0.3686E+02  0.3307E+02
     11.196  0.3188E+01  0.1135E+02  0.3709E+02  0.3389E+02
     11.269  0.3814E+01  0.1115E+02  0.3737E+02  0.3470E+02
     11.341  0.3895E+01  0.8967E+01  0.3765E+02  0.3535E+02
     11.414  0.3804E+01  0.6352E+01  0.3793E+02  0.3581E+02
     11.487  0.3788E+01  0.4400E+01  0.3820E+02  0.3613E+02
     11.559  0.3918E+01  0.3505E+01  0.3849E+02  0.3639E+02
     11.632  0.4151E+01  0.3518E+01  0.3879E+02  0.3664E+02
     11.704  0.4650E+01  0.3665E+01  0.3913E+02  0.3691E+02
     11.777  0.5088E+01  0.3641E+01  0.3950E+02  0.3718E+02
     11.850  0.5164E+01  0.3368E+01  0.3987E+02  0.3742E+02
     11.922  0.5137E+01  0.3154E+01  0.4025E+02  0.3765E+02
     11.995  0.4688E+01  0.3230E+01  0.4059E+02  0.3788E+02
     12.067  0.3917E+01  0.3565E+01  0.4087E+02  0.3814E+02
     12.140  0.3615E+01  0.3997E+01  0.4113E+02  0.3843E+02
     12.212  0.3736E+01  0.4119E+01  0.4140E+02  0.3873E+02
     12.285  0.3695E+01  0.4072E+01  0.4167E+02  0.3903E+02
     12.358  0.3657E+01  0.4243E+01  0.4194E+02  0.3934E+02
     12.430  0.3800E+01  0.4555E+01  0.4222E+02  0.3967E+02
     12.503  0.3693E+01  0.4572E+01  0.4248E+02  0.4000E+02
     12.575  0.3339E+01  0.4259E+01  0.4273E+02  0.4031E+02
     12.648  0.3154E+01  0.4335E+01  0.4296E+02  0.4062E+02
     12.721  0.2931E+01  0.4895E+01  0.4317E+02  0.4098E+02
     12.793  0.2551E+01  0.5249E+01  0.4335E+02  0.4136E+02
     12.866  0.2423E+01  0.5092E+01  0.4353E+02  0.4173E+02
     12.938  0.2785E+01  0.4787E+01  0.4373E+02  0.4208E+02
     13.011  0.3120E+01  0.4482E+01  0.4396E+02  0.4240E+02
     13.084  0.3085E+01  0.4077E+01  0.4418E+02  0.4270E+02
     13.156  0.2905E+01  0.3853E+01  0.4439E+02  0.4298E+02
     13.229  0.2827E+01  0.3631E+01  0.4460E+02  0.4324E+02
     13.301  0.3020E+01  0.3312E+01  0.4482E+02  0.4348E+02
     13.374  0.3305E+01  0.3318E+01  0.4506E+02  0.4373E+02
     13.447  0.3447E+01  0.3454E+01  0.4531E+02  0.4398E+02
     13.519  0.3538E+01  0.3351E+01  0.4557E+02  0.4422E+02
     13.592  0.3790E+01  0.3093E+01  0.4584E+02  0.4445E+02
     13.664  0.4290E+01  0.3022E+01  0.4615E+02  0.4466E+02
     13.737  0.4566E+01  0.2966E+01  0.4648E+02  0.4488E+02
     13.810  0.4228E+01  0.3071E+01  0.4679E+02  0.4510E+02
     13.882  0.3957E+01  0.3720E+01  0.4708E+02  0.4537E+02
     13.955  0.4220E+01  0.4516E+01  0.4739E+02  0.4570E+02
     14.027  0.4677E+01  0.4923E+01  0.4773E+02  0.4606E+02
     14.100  0.4865E+01  0.4852E+01  0.4808E+02  0.4641E+02
     14.173  0.4498E+01  0.4693E+01  0.4841E+02  0.4675E+02
     14.245  0.3606E+01  0.4655E+01  0.4867E+02  0.4709E+02
     14.318  0.2985E+01  0.4559E+01  0.4888E+02  0.4742E+02
     14.390  0.2942E+01  0.4448E+01  0.4910E+02  0.4775E+02
     14.463  0.2966E+01  0.4258E+01  0.4931E+02  0.4805E+02
     14.536  0.3027E+01  0.4117E+01  0.4953E+02  0.4835E+02
     14.608  0.3263E+01  0.3977E+01  0.4977E+02  0.4864E+02
     14.681  0.3341E+01  0.3554E+01  0.5001E+02  0.4890E+02
     14.753  0.3260E+01  0.3227E+01  0.5025E+02  0.4914E+02
     14.826  0.3112E+01  0.3110E+01  0.5048E+02  0.4936E+02
     14.899  0.3162E+01  0.3094E+01  0.5071E+02  0.4959E+02
     14.971  0.3347E+01  0.3362E+01  0.5095E+02  0.4983E+02
     15.044  0.3183E+01  0.3486E+01  0.5118E+02  0.5008E+02
     15.116  0.2783E+01  0.3473E+01  0.5138E+02  0.5034E+02
     15.189  0.2621E+01  0.3528E+01  0.5157E+02  0.5059E+02
     15.262  0.2758E+01  0.3529E+01  0.5177E+02  0.5085E+02
     15.334  0.2677E+01  0.3489E+01  0.5197E+02  0.5110E+02
     15.407  0.2520E+01  0.3558E+01  0.5215E+02  0.5136E+02
     15.479  0.2390E+01  0.3369E+01  0.5233E+02  0.5161E+02
     15.552  0.2539E+01  0.2963E+01  0.5251E+02  0.5182E+02
     15.625  0.3082E+01  0.2594E+01  0.5273E+02  0.5201E+02
     15.697  0.3587E+01  0.2295E+01  0.5299E+02  0.5218E+02
     15.770  0.3485E+01  0.2141E+01  0.5325E+02  0.5233E+02
     15.842  0.3234E+01  0.2231E+01  0.5348E+02  0.5249E+02
     15.915  0.3296E+01  0.2658E+01  0.5372E+02  0.5269E+02
     15.988  0.3224E+01  0.3189E+01  0.5396E+02  0.5292E+02
     16.060  0.3015E+01  0.3482E+01  0.5418E+02  0.5317E+02
     16.133  0.2763E+01  0.3559E+01  0.5438E+02  0.5343E+02
     16.205  0.2657E+01  0.3386E+01  0.5457E+02  0.5368E+02
     16.278  0.2662E+01  0.3067E+01  0.5476E+02  0.5390E+02
     16.351  0.2602E+01  0.2831E+01  0.5495E+02  0.5410E+02
     16.423  0.2334E+01  0.2927E+01  0.5512E+02  0.5432E+02
     16.496  0.1978E+01  0.2788E+01  0.5527E+02  0.5452E+02
     16.568  0.1578E+01  0.2563E+01  0.5538E+02  0.5471E+02
     16.641  0.1196E+01  0.2705E+01  0.5547E+02  0.5490E+02
     16.714  0.1035E+01  0.2580E+01  0.5554E+02  0.5509E+02
     16.786  0.1143E+01  0.1968E+01  0.5563E+02  0.5523E+02
     16.859  0.1158E+01  0.1709E+01  0.5571E+02  0.5536E+02
     16.931  0.8991E+00  0.1676E+01  0.5577E+02  0.5548E+02
     17.004  0.7107E+00  0.1484E+01  0.5583E+02  0.5559E+02
     17.077  0.5646E+00  0.1228E+01  0.5587E+02  0.5568E+02
     17.149  0.5087E+00  0.1126E+01  0.5590E+02  0.5576E+02
     17.222  0.4190E+00  0.9731E+00  0.5594E+02  0.5583E+02
     17.294  0.2730E+00  0.7831E+00  0.5596E+02  0.5589E+02
     17.367  0.1622E+00  0.5712E+00  0.5597E+02  0.5593E+02
     17.440  0.1111E+00  0.2967E+00  0.5597E+02  0.5595E+02
     17.512  0.1176E+00  0.1734E+00  0.5598E+02  0.5596E+02
     17.585  0.1252E+00  0.1388E+00  0.5599E+02  0.5597E+02
     17.657  0.7098E-01  0.1280E+00  0.5600E+02  0.5598E+02
     17.730  0.2282E-01  0.1234E+00  0.5600E+02  0.5599E+02
     17.803  0.5834E-02  0.8531E-01  0.5600E+02  0.5600E+02
     17.875  0.1361E-02  0.3635E-01  0.5600E+02  0.5600E+02
     17.948  0.0000E+00  0.1054E-01  0.5600E+02  0.5600E+02
     18.020  0.0000E+00  0.2570E-02  0.5600E+02  0.5600E+02
     18.093  0.0000E+00  0.4213E-03  0.5600E+02  0.5600E+02
     18.166  0.0000E+00  0.0000E+00  0.5600E+02  0.5600E+02
     18.238  0.0000E+00  0.0000E+00  0.5600E+02  0.5600E+02
     18.311  0.0000E+00  0.0000E+00  0.5600E+02  0.5600E+02
     18.383  0.0000E+00  0.0000E+00  0.5600E+02  0.5600E+02
     18.456  0.0000E+00  0.0000E+00  0.5600E+02  0.5600E+02
     18.529  0.0000E+00  0.0000E+00  0.5600E+02  0.5600E+02
     18.601  0.0000E+00  0.0000E+00  0.5600E+02  0.5600E+02
     18.674  0.0000E+00  0.0000E+00  0.5600E+02  0.5600E+02
     18.746  0.0000E+00  0.0000E+00  0.5600E+02  0.5600E+02
     18.74630266     -3.03304792  301      9.83856964      1.00000000
     -3.033  0.0000E+00  0.0000E+00  0.0000E+00  0.0000E+00  0.0000E+00  0.0000E+00  0.0000E+00  0.0000E+00  0.0000E+00  0.0000E+00  0.0000E+00  0.0000E+00  0.0000E+00  0.0000E+00  0.0000E+00  0.0000E+00  0.0000E+00  0.0000E+00
     -2.960  0.0000E+00  0.0000E+00  0.0000E+00  0.0000E+00  0.0000E+00  0.0000E+00  0.0000E+00  0.0000E+00  0.0000E+00  0.0000E+00  0.0000E+00  0.0000E+00  0.0000E+00  0.0000E+00  0.0000E+00  0.0000E+00  0.0000E+00  0.0000E+00
     -2.888  0.0000E+00  0.0000E+00  0.0000E+00  0.0000E+00  0.0000E+00  0.0000E+00  0.0000E+00  0.0000E+00  0.0000E+00  0.0000E+00  0.0000E+00  0.0000E+00  0.0000E+00  0.0000E+00  0.0000E+00  0.0000E+00  0.0000E+00  0.0000E+00
     -2.815  0.0000E+00  0.0000E+00  0.0000E+00  0.0000E+00  0.0000E+00  0.0000E+00  0.0000E+00  0.0000E+00  0.0000E+00  0.0000E+00  0.0000E+00  0.0000E+00  0.0000E+00  0.0000E+00  0.0000E+00  0.0000E+00  0.0000E+00  0.0000E+00
     -2.743  0.0000E+00  0.0000E+00  0.0000E+00  0.0000E+00  0.0000E+00  0.0000E+00  0.0000E+00  0.0000E+00  0.0000E+00  0.0000E+00  0.0000E+00  0.0000E+00  0.0000E+00  0.0000E+00  0.0000E+00  0.0000E+00  0.0000E+00  0.0000E+00
     -2.670  0.0000E+00  0.0000E+00  0.0000E+00  0.0000E+00  0.0000E+00  0.0000E+00  0.0000E+00  0.0000E+00  0.0000E+00  0.0000E+00  0.0000E+00  0.0000E+00  0.0000E+00  0.0000E+00  0.0000E+00  0.0000E+00  0.0000E+00  0.0000E+00
     -2.597  0.0000E+00  0.0000E+00  0.0000E+00  0.0000E+00  0.0000E+00  0.0000E+00  0.0000E+00  0.0000E+00  0.0000E+00  0.0000E+00  0.0000E+00  0.0000E+00  0.0000E+00  0.0000E+00  0.0000E+00  0.0000E+00  0.0000E+00  0.0000E+00
     -2.525  0.0000E+00  0.0000E+00  0.0000E+00  0.0000E+00  0.0000E+00  0.0000E+00  0.0000E+00  0.0000E+00  0.0000E+00  0.0000E+00  0.0000E+00  0.0000E+00  0.0000E+00  0.0000E+00  0.0000E+00  0.0000E+00  0.0000E+00  0.0000E+00
     -2.452  0.2452E-06  0.8663E-07  0.9960E-20  0.1633E-19  0.5733E-09  0.8669E-10  0.9960E-20  0.1633E-19  0.5510E-16  0.3300E-19  0.7116E-16  0.5089E-18  0.1821E-10  0.1837E-10  0.7116E-16  0.5089E-18  0.1826E-16  0.3448E-15
     -2.380  0.2652E-05  0.8413E-06  0.8024E-08  0.1928E-08  0.1237E-07  0.3068E-08  0.8024E-08  0.1928E-08  0.4293E-10  0.7158E-16  0.4791E-10  0.6187E-11  0.2681E-09  0.1906E-09  0.4791E-10  0.6187E-11  0.2470E-10  0.7355E-11
     -2.307  0.1225E-04  0.4234E-05  0.4304E-07  0.1458E-07  0.8300E-07  0.2137E-07  0.4304E-07  0.1458E-07  0.2314E-09  0.6471E-10  0.5629E-09  0.1154E-09  0.1064E-08  0.9689E-09  0.5629E-09  0.1154E-09  0.1325E-09  0.3934E-10
     -2.234  0.4956E-04  0.1769E-04  0.1732E-06  0.6283E-07  0.3207E-06  0.9191E-07  0.1732E-06  0.6283E-07  0.8966E-09  0.3481E-09  0.2037E-08  0.5796E-09  0.4562E-08  0.4032E-08  0.2037E-08  0.5796E-09  0.6373E-09  0.1525E-09
     -2.162  0.2061E-03  0.7440E-04  0.7605E-06  0.2689E-06  0.1381E-05  0.3900E-06  0.7605E-06  0.2689E-06  0.4299E-08  0.1348E-08  0.9340E-08  0.2325E-08  0.1941E-07  0.1717E-07  0.9340E-08  0.2325E-08  0.2999E-08  0.8077E-09
     -2.089  0.7773E-03  0.3034E-03  0.3109E-05  0.1172E-05  0.5504E-05  0.1678E-05  0.3109E-05  0.1172E-05  0.1874E-07  0.6457E-08  0.3955E-07  0.1072E-07  0.7428E-07  0.7076E-07  0.3955E-07  0.1072E-07  0.1209E-07  0.3774E-08
     -2.017  0.2357E-02  0.1082E-02  0.1119E-04  0.4668E-05  0.1887E-04  0.6580E-05  0.1119E-04  0.4668E-05  0.7390E-07  0.2786E-07  0.1498E-06  0.4512E-07  0.2337E-06  0.2545E-06  0.1498E-06  0.4512E-07  0.4321E-07  0.1481E-07
     -1.944  0.5096E-02  0.2965E-02  0.3098E-04  0.1562E-04  0.4925E-04  0.2152E-04  0.3098E-04  0.1562E-04  0.2531E-06  0.1059E-06  0.4721E-06  0.1653E-06  0.5440E-06  0.7104E-06  0.4721E-06  0.1653E-06  0.1243E-06  0.4936E-07
     -1.871  0.7540E-02  0.5641E-02  0.6157E-04  0.3867E-04  0.9202E-04  0.5191E-04  0.6157E-04  0.3867E-04  0.6326E-06  0.3306E-06  0.1095E-05  0.4875E-06  0.9691E-06  0.1407E-05  0.1095E-05  0.4875E-06  0.3199E-06  0.1333E-06
     -1.799  0.8834E-02  0.7486E-02  0.1030E-03  0.7054E-04  0.1445E-03  0.9107E-04  0.1030E-03  0.7054E-04  0.1254E-05  0.7457E-06  0.2060E-05  0.1049E-05  0.1726E-05  0.2104E-05  0.2060E-05  0.1049E-05  0.8592E-06  0.3489E-06
     -1.726  0.1136E-01  0.8765E-02  0.1788E-03  0.1187E-03  0.2452E-03  0.1480E-03  0.1788E-03  0.1187E-03  0.2642E-05  0.1477E-05  0.4135E-05  0.1995E-05  0.3199E-05  0.3151E-05  0.4135E-05  0.1995E-05  0.1887E-05  0.9090E-06
     -1.654  0.1438E-01  0.1169E-01  0.2631E-03  0.2021E-03  0.3677E-03  0.2559E-03  0.2631E-03  0.2021E-03  0.4936E-05  0.3119E-05  0.7420E-05  0.4106E-05  0.4489E-05  0.4917E-05  0.7420E-05  0.4106E-05  0.2683E-05  0.1738E-05
     -1.581  0.1332E-01  0.1348E-01  0.2778E-03  0.2642E-03  0.4024E-03  0.3464E-03  0.2778E-03  0.2642E-03  0.6644E-05  0.5184E-05  0.9637E-05  0.6721E-05  0.4770E-05  0.5856E-05  0.9637E-05  0.6721E-05  0.2798E-05  0.2132E-05
     -1.508  0.1223E-01  0.1151E-01  0.3183E-03  0.2656E-03  0.4736E-03  0.3543E-03  0.3183E-03  0.2656E-03  0.9416E-05  0.6679E-05  0.1348E-04  0.8392E-05  0.6475E-05  0.5749E-05  0.1348E-04  0.8392E-05  0.4099E-05  0.2293E-05
     -1.436  0.1570E-01  0.1190E-01  0.4958E-03  0.3500E-03  0.6778E-03  0.4577E-03  0.4958E-03  0.3500E-03  0.1518E-04  0.1030E-04  0.2208E-04  0.1293E-04  0.1115E-04  0.8177E-05  0.2208E-04  0.1293E-04  0.8542E-05  0.4074E-05
     -1.363  0.1765E-01  0.1565E-01  0.6500E-03  0.5382E-03  0.7317E-03  0.6539E-03  0.6500E-03  0.5382E-03  0.1916E-04  0.1556E-04  0.2728E-04  0.1995E-04  0.1558E-04  0.1376E-04  0.2728E-04  0.1995E-04  0.1441E-04  0.8255E-05
     -1.291  0.1637E-01  0.1655E-01  0.6817E-03  0.6442E-03  0.7075E-03  0.7055E-03  0.6817E-03  0.6442E-03  0.2273E-04  0.1840E-04  0.3110E-04  0.2297E-04  0.1716E-04  0.1793E-04  0.3110E-04  0.2297E-04  0.1645E-04  0.1214E-04
     -1.218  0.1635E-01  0.1533E-01  0.7115E-03  0.6495E-03  0.9063E-03  0.7565E-03  0.7115E-03  0.6495E-03  0.3243E-04  0.2302E-04  0.4350E-04  0.2792E-04  0.1854E-04  0.1800E-04  0.4350E-04  0.2792E-04  0.1473E-04  0.1209E-04
     -1.146  0.1795E-01  0.1572E-01  0.8580E-03  0.7163E-03  0.1070E-02  0.9477E-03  0.8580E-03  0.7163E-03  0.4885E-04  0.3462E-04  0.5794E-04  0.4099E-04  0.2172E-04  0.1841E-04  0.5794E-04  0.4099E-04  0.1638E-04  0.1117E-04
     -1.073  0.1725E-01  0.1708E-01  0.9302E-03  0.8820E-03  0.9810E-03  0.1046E-02  0.9302E-03  0.8820E-03  0.5630E-04  0.4931E-04  0.6226E-04  0.5405E-04  0.2235E-04  0.2138E-04  0.6226E-04  0.5405E-04  0.1990E-04  0.1370E-04
     -1.000  0.1507E-01  0.1564E-01  0.8873E-03  0.8848E-03  0.9709E-03  0.9834E-03  0.8873E-03  0.8848E-03  0.4853E-04  0.4905E-04  0.6438E-04  0.5540E-04  0.2464E-04  0.2176E-04  0.6438E-04  0.5540E-04  0.2602E-04  0.1650E-04
     -0.928  0.1790E-01  0.1439E-01  0.1181E-02  0.9022E-03  0.1302E-02  0.1054E-02  0.1181E-02  0.9022E-03  0.6146E-04  0.4479E-04  0.8751E-04  0.5860E-04  0.4039E-04  0.2677E-04  0.8751E-04  0.5860E-04  0.4430E-04  0.2375E-04
     -0.855  0.2164E-01  0.1779E-01  0.1544E-02  0.1271E-02  0.1680E-02  0.1416E-02  0.1544E-02  0.1271E-02  0.9286E-04  0.6648E-04  0.1093E-03  0.8014E-04  0.6302E-04  0.4512E-04  0.1093E-03  0.8014E-04  0.5975E-04  0.3890E-04
     -0.783  0.2081E-01  0.2044E-01  0.1537E-02  0.1530E-02  0.1809E-02  0.1809E-02  0.1537E-02  0.1530E-02  0.1146E-03  0.9438E-04  0.1112E-03  0.9935E-04  0.7329E-04  0.6091E-04  0.1112E-03  0.9935E-04  0.5594E-04  0.4563E-04
     -0.710  0.2048E-01  0.1934E-01  0.1622E-02  0.1507E-02  0.1907E-02  0.1884E-02  0.1622E-02  0.1507E-02  0.1359E-03  0.1111E-03  0.1391E-03  0.1095E-03  0.7182E-04  0.6114E-04  0.1391E-03  0.1095E-03  0.5796E-04  0.4223E-04
     -0.637  0.2231E-01  0.1977E-01  0.1848E-02  0.1666E-02  0.2265E-02  0.2043E-02  0.1848E-02  0.1666E-02  0.1578E-03  0.1305E-03  0.1920E-03  0.1439E-03  0.7335E-04  0.6105E-04  0.1920E-03  0.1439E-03  0.6708E-04  0.4791E-04
     -0.565  0.1960E-01  0.2011E-01  0.1603E-02  0.1733E-02  0.2318E-02  0.2347E-02  0.1603E-02  0.1733E-02  0.1473E-03  0.1443E-03  0.1970E-03  0.1785E-03  0.6712E-04  0.6101E-04  0.1970E-03  0.1785E-03  0.5421E-04  0.4788E-04
     -0.492  0.1526E-01  0.1544E-01  0.1406E-02  0.1378E-02  0.1881E-02  0.1994E-02  0.1406E-02  0.1378E-02  0.1457E-03  0.1306E-03  0.1866E-03  0.1609E-03  0.5530E-04  0.4789E-04  0.1866E-03  0.1609E-03  0.4898E-04  0.3471E-04
     -0.420  0.1707E-01  0.1377E-01  0.1909E-02  0.1460E-02  0.1951E-02  0.1759E-02  0.1909E-02  0.1460E-02  0.2150E-03  0.1517E-03  0.2303E-03  0.1704E-03  0.7475E-04  0.4901E-04  0.2303E-03  0.1704E-03  0.7755E-04  0.4116E-04
     -0.347  0.2121E-01  0.1748E-01  0.2587E-02  0.2123E-02  0.2588E-02  0.2329E-02  0.2587E-02  0.2123E-02  0.2926E-03  0.2225E-03  0.2767E-03  0.2251E-03  0.1289E-03  0.8587E-04  0.2767E-03  0.2251E-03  0.1234E-03  0.7275E-04
     -0.274  0.2305E-01  0.2120E-01  0.2856E-02  0.2717E-02  0.3454E-02  0.3271E-02  0.2856E-02  0.2717E-02  0.2959E-03  0.2717E-03  0.3207E-03  0.2752E-03  0.1700E-03  0.1322E-03  0.3207E-03  0.2752E-03  0.1572E-03  0.1091E-03
     -0.202  0.2201E-01  0.2119E-01  0.2762E-02  0.2752E-02  0.3867E-02  0.3862E-02  0.2762E-02  0.2752E-02  0.2847E-03  0.2577E-03  0.3648E-03  0.3115E-03  0.1671E-03  0.1405E-03  0.3648E-03  0.3115E-03  0.1582E-03  0.1208E-03
     -0.129  0.2184E-01  0.1953E-01  0.3022E-02  0.2716E-02  0.3769E-02  0.3739E-02  0.3022E-02  0.2716E-02  0.3626E-03  0.2871E-03  0.4178E-03  0.3455E-03  0.1637E-03  0.1272E-03  0.4178E-03  0.3455E-03  0.1660E-03  0.1150E-03
     -0.057  0.2150E-01  0.2012E-01  0.3091E-02  0.3032E-02  0.4152E-02  0.4048E-02  0.3091E-02  0.3032E-02  0.3982E-03  0.3627E-03  0.4777E-03  0.4109E-03  0.1737E-03  0.1394E-03  0.4777E-03  0.4109E-03  0.1641E-03  0.1224E-03
      0.016  0.1778E-01  0.1775E-01  0.2598E-02  0.2724E-02  0.4099E-02  0.4230E-02  0.2598E-02  0.2724E-02  0.3909E-03  0.3451E-03  0.4769E-03  0.4159E-03  0.1526E-03  0.1322E-03  0.4769E-03  0.4159E-03  0.1241E-03  0.1079E-03
      0.089  0.1662E-01  0.1393E-01  0.2794E-02  0.2328E-02  0.3937E-02  0.3846E-02  0.2794E-02  0.2328E-02  0.5140E-03  0.3632E-03  0.5485E-03  0.4052E-03  0.1351E-03  0.1043E-03  0.5485E-03  0.4052E-03  0.1195E-03  0.8138E-04
      0.161  0.1802E-01  0.1542E-01  0.3281E-02  0.2901E-02  0.4938E-02  0.4707E-02  0.3281E-02  0.2901E-02  0.6365E-03  0.5137E-03  0.6895E-03  0.5647E-03  0.1601E-03  0.1165E-03  0.6895E-03  0.5647E-03  0.1431E-03  0.9347E-04
      0.234  0.1846E-01  0.1732E-01  0.3593E-02  0.3441E-02  0.5876E-02  0.5787E-02  0.3593E-02  0.3441E-02  0.6850E-03  0.6138E-03  0.7853E-03  0.7145E-03  0.1970E-03  0.1491E-03  0.7853E-03  0.7145E-03  0.1675E-03  0.1148E-03
      0.306  0.1885E-01  0.1734E-01  0.4289E-02  0.3893E-02  0.6019E-02  0.6032E-02  0.4289E-02  0.3893E-02  0.7036E-03  0.6405E-03  0.8900E-03  0.7730E-03  0.2151E-03  0.1732E-03  0.8900E-03  0.7730E-03  0.2283E-03  0.1460E-03
      0.379  0.1843E-01  0.1705E-01  0.4897E-02  0.4571E-02  0.5751E-02  0.5748E-02  0.4897E-02  0.4571E-02  0.7063E-03  0.6335E-03  0.9643E-03  0.8296E-03  0.2047E-03  0.1768E-03  0.9643E-03  0.8296E-03  0.2843E-03  0.1940E-03
      0.452  0.1564E-01  0.1478E-01  0.4859E-02  0.4652E-02  0.4972E-02  0.4802E-02  0.4859E-02  0.4652E-02  0.7264E-03  0.6208E-03  0.9468E-03  0.8060E-03  0.1892E-03  0.1649E-03  0.9468E-03  0.8060E-03  0.2673E-03  0.1965E-03
      0.524  0.1326E-01  0.1197E-01  0.5108E-02  0.4623E-02  0.4226E-02  0.4154E-02  0.5108E-02  0.4623E-02  0.8718E-03  0.6725E-03  0.9716E-03  0.7918E-03  0.1957E-03  0.1595E-03  0.9716E-03  0.7918E-03  0.2443E-03  0.1731E-03
      0.597  0.1388E-01  0.1174E-01  0.5647E-02  0.5175E-02  0.4725E-02  0.4458E-02  0.5647E-02  0.5175E-02  0.1214E-02  0.9015E-03  0.1219E-02  0.9541E-03  0.2138E-03  0.1735E-03  0.1219E-02  0.9541E-03  0.2319E-03  0.1695E-03