  16  16   1   0
  0.1344536E+02  0.3711652E-09  0.3711652E-09  0.1561558E-08  0.5000000E-15
  1.000000000000000E-004
  CAR 
 unknown system                          
     17.77718576     -3.29790892  301      9.10375904      1.00000000
     -3.298  0.0000E+00  0.0000E+00  0.0000E+00  0.0000E+00
     -3.228  0.0000E+00  0.0000E+00  0.0000E+00  0.0000E+00
     -3.157  0.0000E+00  0.0000E+00  0.0000E+00  0.0000E+00
     -3.087  0.0000E+00  0.0000E+00  0.0000E+00  0.0000E+00
     -3.017  0.0000E+00  0.0000E+00  0.0000E+00  0.0000E+00
     -2.947  0.0000E+00  0.0000E+00  0.0000E+00  0.0000E+00
     -2.876  0.0000E+00  0.0000E+00  0.0000E+00  0.0000E+00
     -2.806  0.2505E-05  0.0000E+00  0.1760E-06  0.0000E+00
     -2.736  0.2423E-04  0.4178E-05  0.1878E-05  0.2935E-06
     -2.666  0.1186E-03  0.4050E-04  0.1021E-04  0.3138E-05
     -2.595  0.4726E-03  0.1984E-03  0.4341E-04  0.1707E-04
     -2.525  0.1904E-02  0.7895E-03  0.1772E-03  0.7254E-04
     -2.455  0.7565E-02  0.3162E-02  0.7086E-03  0.2947E-03
     -2.385  0.2726E-01  0.1230E-01  0.2624E-02  0.1158E-02
     -2.314  0.7979E-01  0.4175E-01  0.8229E-02  0.4092E-02
     -2.244  0.1693E+00  0.1098E+00  0.2012E-01  0.1181E-01
     -2.174  0.2511E+00  0.2038E+00  0.3777E-01  0.2613E-01
     -2.104  0.3027E+00  0.2713E+00  0.5903E-01  0.4518E-01
     -2.033  0.3962E+00  0.3290E+00  0.8687E-01  0.6830E-01
     -1.963  0.4950E+00  0.4412E+00  0.1216E+00  0.9929E-01
     -1.893  0.4645E+00  0.4967E+00  0.1543E+00  0.1342E+00
     -1.823  0.4529E+00  0.4374E+00  0.1861E+00  0.1649E+00
     -1.752  0.5847E+00  0.4848E+00  0.2272E+00  0.1990E+00
     -1.682  0.6503E+00  0.6295E+00  0.2729E+00  0.2432E+00
     -1.612  0.6175E+00  0.6602E+00  0.3163E+00  0.2896E+00
     -1.542  0.6374E+00  0.6299E+00  0.3611E+00  0.3339E+00
     -1.471  0.7016E+00  0.6680E+00  0.4104E+00  0.3809E+00
     -1.401  0.6690E+00  0.7227E+00  0.4574E+00  0.4317E+00
     -1.331  0.6223E+00  0.6635E+00  0.5012E+00  0.4783E+00
     -1.261  0.7697E+00  0.6625E+00  0.5553E+00  0.5249E+00
     -1.190  0.9107E+00  0.8434E+00  0.6193E+00  0.5842E+00
     -1.120  0.8879E+00  0.9450E+00  0.6817E+00  0.6506E+00
     -1.050  0.9132E+00  0.9144E+00  0.7459E+00  0.7148E+00
     -0.980  0.9846E+00  0.9699E+00  0.8151E+00  0.7830E+00
     -0.909  0.8431E+00  0.9411E+00  0.8743E+00  0.8492E+00
     -0.839  0.7203E+00  0.7398E+00  0.9250E+00  0.9011E+00
     -0.769  0.8746E+00  0.7693E+00  0.9865E+00  0.9553E+00
     -0.699  0.1092E+01  0.1022E+01  0.1063E+01  0.1027E+01
     -0.628  0.1190E+01  0.1226E+01  0.1147E+01  0.1113E+01
     -0.558  0.1165E+01  0.1206E+01  0.1229E+01  0.1198E+01
     -0.488  0.1201E+01  0.1182E+01  0.1313E+01  0.1281E+01
     -0.418  0.1175E+01  0.1242E+01  0.1396E+01  0.1368E+01
     -0.347  0.1019E+01  0.1070E+01  0.1467E+01  0.1444E+01
     -0.277  0.1069E+01  0.9877E+00  0.1543E+01  0.1513E+01
     -0.207  0.1230E+01  0.1224E+01  0.1629E+01  0.1599E+01
     -0.137  0.1329E+01  0.1375E+01  0.1722E+01  0.1696E+01
     -0.066  0.1424E+01  0.1446E+01  0.1823E+01  0.1797E+01
      0.004  0.1414E+01  0.1434E+01  0.1922E+01  0.1898E+01
      0.074  0.1276E+01  0.1285E+01  0.2012E+01  0.1988E+01
      0.144  0.1266E+01  0.1243E+01  0.2101E+01  0.2076E+01
      0.215  0.1427E+01  0.1387E+01  0.2201E+01  0.2173E+01
      0.285  0.1554E+01  0.1567E+01  0.2310E+01  0.2283E+01
      0.355  0.1406E+01  0.1475E+01  0.2409E+01  0.2387E+01
      0.425  0.1254E+01  0.1272E+01  0.2497E+01  0.2477E+01
      0.496  0.1134E+01  0.1177E+01  0.2577E+01  0.2559E+01
      0.566  0.9666E+00  0.9672E+00  0.2645E+01  0.2627E+01
      0.636  0.1010E+01  0.9420E+00  0.2716E+01  0.2694E+01
      0.706  0.1250E+01  0.1170E+01  0.2804E+01  0.2776E+01
      0.777  0.1524E+01  0.1480E+01  0.2911E+01  0.2880E+01
      0.847  0.1483E+01  0.1466E+01  0.3015E+01  0.2983E+01
      0.917  0.1307E+01  0.1235E+01  0.3107E+01  0.3070E+01
      0.987  0.1286E+01  0.1224E+01  0.3197E+01  0.3156E+01
      1.058  0.1287E+01  0.1189E+01  0.3288E+01  0.3239E+01
      1.128  0.1461E+01  0.1226E+01  0.3390E+01  0.3326E+01
      1.198  0.1702E+01  0.1451E+01  0.3510E+01  0.3428E+01
      1.268  0.1676E+01  0.1669E+01  0.3628E+01  0.3545E+01
      1.339  0.1459E+01  0.1575E+01  0.3731E+01  0.3656E+01
      1.409  0.1357E+01  0.1377E+01  0.3826E+01  0.3752E+01
      1.479  0.1336E+01  0.1423E+01  0.3920E+01  0.3852E+01
      1.549  0.1432E+01  0.1437E+01  0.4021E+01  0.3953E+01
      1.620  0.1542E+01  0.1407E+01  0.4129E+01  0.4052E+01
      1.690  0.1603E+01  0.1420E+01  0.4242E+01  0.4152E+01
      1.760  0.1717E+01  0.1543E+01  0.4362E+01  0.4261E+01
      1.830  0.1763E+01  0.1797E+01  0.4486E+01  0.4387E+01
      1.901  0.1721E+01  0.1839E+01  0.4607E+01  0.4516E+01
      1.971  0.1853E+01  0.1749E+01  0.4737E+01  0.4639E+01
      2.041  0.2012E+01  0.1845E+01  0.4879E+01  0.4769E+01
      2.111  0.1980E+01  0.1975E+01  0.5018E+01  0.4908E+01
      2.182  0.1939E+01  0.1884E+01  0.5154E+01  0.5040E+01
      2.252  0.1811E+01  0.1789E+01  0.5282E+01  0.5166E+01
      2.322  0.1687E+01  0.1735E+01  0.5400E+01  0.5288E+01
      2.392  0.1671E+01  0.1717E+01  0.5518E+01  0.5409E+01
      2.463  0.1679E+01  0.1664E+01  0.5636E+01  0.5526E+01
      2.533  0.1650E+01  0.1620E+01  0.5752E+01  0.5640E+01
      2.603  0.1896E+01  0.1684E+01  0.5885E+01  0.5758E+01
      2.673  0.2031E+01  0.1841E+01  0.6028E+01  0.5887E+01
      2.744  0.1775E+01  0.1881E+01  0.6153E+01  0.6020E+01
      2.814  0.1589E+01  0.1729E+01  0.6264E+01  0.6141E+01
      2.884  0.1707E+01  0.1518E+01  0.6384E+01  0.6248E+01
      2.954  0.2087E+01  0.1408E+01  0.6531E+01  0.6347E+01
      3.025  0.2405E+01  0.1695E+01  0.6700E+01  0.6466E+01
      3.095  0.2402E+01  0.2238E+01  0.6869E+01  0.6623E+01
      3.165  0.2226E+01  0.2376E+01  0.7026E+01  0.6790E+01
      3.235  0.2003E+01  0.2255E+01  0.7166E+01  0.6949E+01
      3.306  0.1805E+01  0.2180E+01  0.7293E+01  0.7102E+01
      3.376  0.1755E+01  0.1860E+01  0.7417E+01  0.7233E+01
      3.446  0.1805E+01  0.1581E+01  0.7544E+01  0.7344E+01
      3.516  0.1901E+01  0.1676E+01  0.7677E+01  0.7462E+01
      3.587  0.2080E+01  0.1847E+01  0.7823E+01  0.7592E+01
      3.657  0.2168E+01  0.2034E+01  0.7976E+01  0.7735E+01
      3.727  0.2342E+01  0.2131E+01  0.8140E+01  0.7885E+01
      3.797  0.2514E+01  0.2113E+01  0.8317E+01  0.8033E+01
      3.868  0.2408E+01  0.2194E+01  0.8486E+01  0.8187E+01
      3.938  0.2384E+01  0.2288E+01  0.8654E+01  0.8348E+01
      4.008  0.2667E+01  0.2155E+01  0.8841E+01  0.8500E+01
      4.078  0.2900E+01  0.2301E+01  0.9045E+01  0.8661E+01
      4.149  0.2780E+01  0.2589E+01  0.9241E+01  0.8843E+01
      4.219  0.2484E+01  0.2669E+01  0.9415E+01  0.9031E+01
      4.289  0.2279E+01  0.2593E+01  0.9576E+01  0.9213E+01
      4.359  0.2194E+01  0.2398E+01  0.9730E+01  0.9382E+01
      4.430  0.2285E+01  0.2289E+01  0.9890E+01  0.9543E+01
      4.500  0.2434E+01  0.2105E+01  0.1006E+02  0.9691E+01
      4.570  0.2512E+01  0.1942E+01  0.1024E+02  0.9827E+01
      4.640  0.2593E+01  0.2105E+01  0.1042E+02  0.9975E+01
      4.711  0.2627E+01  0.2326E+01  0.1061E+02  0.1014E+02
      4.781  0.2703E+01  0.2339E+01  0.1080E+02  0.1030E+02
      4.851  0.2755E+01  0.2309E+01  0.1099E+02  0.1047E+02
      4.921  0.2831E+01  0.2285E+01  0.1119E+02  0.1063E+02
      4.992  0.3013E+01  0.2555E+01  0.1140E+02  0.1081E+02
      5.062  0.2990E+01  0.2711E+01  0.1161E+02  0.1100E+02
      5.132  0.3014E+01  0.2640E+01  0.1182E+02  0.1118E+02
      5.202  0.3159E+01  0.2799E+01  0.1204E+02  0.1138E+02
      5.273  0.3293E+01  0.2837E+01  0.1228E+02  0.1158E+02
      5.343  0.3412E+01  0.2691E+01  0.1252E+02  0.1177E+02
      5.413  0.3569E+01  0.2666E+01  0.1277E+02  0.1195E+02
      5.483  0.3801E+01  0.2859E+01  0.1303E+02  0.1216E+02
      5.554  0.4028E+01  0.3038E+01  0.1332E+02  0.1237E+02
      5.624  0.4095E+01  0.3154E+01  0.1360E+02  0.1259E+02
      5.694  0.4236E+01  0.3036E+01  0.1390E+02  0.1280E+02
      5.764  0.4230E+01  0.2835E+01  0.1420E+02  0.1300E+02
      5.835  0.4257E+01  0.3184E+01  0.1450E+02  0.1323E+02
      5.905  0.4286E+01  0.3512E+01  0.1480E+02  0.1347E+02
      5.975  0.4262E+01  0.3453E+01  0.1510E+02  0.1372E+02
      6.045  0.4324E+01  0.3189E+01  0.1540E+02  0.1394E+02
      6.116  0.4505E+01  0.3098E+01  0.1572E+02  0.1416E+02
      6.186  0.4397E+01  0.3279E+01  0.1603E+02  0.1439E+02
      6.256  0.4101E+01  0.3539E+01  0.1632E+02  0.1464E+02
      6.326  0.4077E+01  0.3634E+01  0.1660E+02  0.1489E+02
      6.397  0.4190E+01  0.3660E+01  0.1690E+02  0.1515E+02
      6.467  0.4267E+01  0.3987E+01  0.1720E+02  0.1543E+02
      6.537  0.4486E+01  0.4083E+01  0.1751E+02  0.1572E+02
      6.607  0.4543E+01  0.3686E+01  0.1783E+02  0.1598E+02
      6.678  0.4551E+01  0.3270E+01  0.1815E+02  0.1621E+02
      6.748  0.5268E+01  0.3195E+01  0.1852E+02  0.1643E+02
      6.818  0.6199E+01  0.3334E+01  0.1896E+02  0.1667E+02
      6.888  0.6739E+01  0.3372E+01  0.1943E+02  0.1690E+02
      6.959  0.7382E+01  0.3432E+01  0.1995E+02  0.1715E+02
      7.029  0.7946E+01  0.3605E+01  0.2051E+02  0.1740E+02
      7.099  0.7963E+01  0.3775E+01  0.2107E+02  0.1766E+02
      7.169  0.7565E+01  0.3778E+01  0.2160E+02  0.1793E+02
      7.240  0.6870E+01  0.3879E+01  0.2208E+02  0.1820E+02
      7.310  0.6071E+01  0.4101E+01  0.2251E+02  0.1849E+02
      7.380  0.5692E+01  0.4769E+01  0.2291E+02  0.1883E+02
      7.450  0.6035E+01  0.5254E+01  0.2334E+02  0.1919E+02
      7.521  0.6436E+01  0.5103E+01  0.2379E+02  0.1955E+02
      7.591  0.6278E+01  0.5088E+01  0.2423E+02  0.1991E+02
      7.661  0.5508E+01  0.5093E+01  0.2462E+02  0.2027E+02
      7.731  0.4725E+01  0.5212E+01  0.2495E+02  0.2064E+02
      7.802  0.4517E+01  0.5782E+01  0.2527E+02  0.2104E+02
      7.872  0.4536E+01  0.5645E+01  0.2559E+02  0.2144E+02
      7.942  0.4477E+01  0.4656E+01  0.2590E+02  0.2177E+02
      8.012  0.4219E+01  0.4306E+01  0.2620E+02  0.2207E+02
      8.083  0.3841E+01  0.4499E+01  0.2647E+02  0.2239E+02
      8.153  0.3573E+01  0.4483E+01  0.2672E+02  0.2270E+02
      8.223  0.3665E+01  0.4405E+01  0.2698E+02  0.2301E+02
      8.293  0.4087E+01  0.4506E+01  0.2726E+02  0.2333E+02
      8.364  0.4820E+01  0.4644E+01  0.2760E+02  0.2365E+02
      8.434  0.5359E+01  0.4591E+01  0.2798E+02  0.2398E+02
      8.504  0.5970E+01  0.4666E+01  0.2840E+02  0.2430E+02
      8.574  0.8352E+01  0.4494E+01  0.2899E+02  0.2462E+02
      8.645  0.1193E+02  0.3704E+01  0.2982E+02  0.2488E+02
      8.715  0.1277E+02  0.2973E+01  0.3072E+02  0.2509E+02
      8.785  0.1092E+02  0.2743E+01  0.3149E+02  0.2528E+02
      8.855  0.8784E+01  0.2955E+01  0.3211E+02  0.2549E+02
      8.926  0.7090E+01  0.3104E+01  0.3260E+02  0.2571E+02
      8.996  0.6486E+01  0.3157E+01  0.3306E+02  0.2593E+02
      9.066  0.6259E+01  0.3264E+01  0.3350E+02  0.2616E+02
      9.136  0.5586E+01  0.3120E+01  0.3389E+02  0.2638E+02
      9.207  0.4425E+01  0.3124E+01  0.3421E+02  0.2660E+02
      9.277  0.3390E+01  0.3385E+01  0.3444E+02  0.2684E+02
      9.347  0.2970E+01  0.3346E+01  0.3465E+02  0.2707E+02
      9.417  0.2670E+01  0.3199E+01  0.3484E+02  0.2730E+02
      9.488  0.2450E+01  0.3294E+01  0.3501E+02  0.2753E+02
      9.558  0.2525E+01  0.3544E+01  0.3519E+02  0.2778E+02
      9.628  0.2488E+01  0.3577E+01  0.3537E+02  0.2803E+02
      9.698  0.2343E+01  0.3703E+01  0.3553E+02  0.2829E+02
      9.769  0.2071E+01  0.3968E+01  0.3568E+02  0.2857E+02
      9.839  0.1872E+01  0.3868E+01  0.3581E+02  0.2884E+02
      9.909  0.1964E+01  0.3411E+01  0.3595E+02  0.2908E+02
      9.979  0.2223E+01  0.3509E+01  0.3610E+02  0.2933E+02
     10.050  0.2627E+01  0.4510E+01  0.3629E+02  0.2964E+02
     10.120  0.2866E+01  0.5603E+01  0.3649E+02  0.3004E+02
     10.190  0.2671E+01  0.6694E+01  0.3668E+02  0.3051E+02
     10.260  0.2836E+01  0.7824E+01  0.3688E+02  0.3106E+02
     10.331  0.3626E+01  0.8153E+01  0.3713E+02  0.3163E+02
     10.401  0.4212E+01  0.8609E+01  0.3743E+02  0.3224E+02
     10.471  0.4320E+01  0.9873E+01  0.3773E+02  0.3293E+02
     10.541  0.4392E+01  0.1101E+02  0.3804E+02  0.3370E+02
     10.612  0.4519E+01  0.1161E+02  0.3836E+02  0.3452E+02
     10.682  0.5080E+01  0.1054E+02  0.3871E+02  0.3526E+02
     10.752  0.5384E+01  0.7508E+01  0.3909E+02  0.3579E+02
     10.822  0.4956E+01  0.5264E+01  0.3944E+02  0.3616E+02
     10.893  0.4811E+01  0.4491E+01  0.3978E+02  0.3648E+02
     10.963  0.4791E+01  0.4409E+01  0.4012E+02  0.3679E+02
     11.033  0.4354E+01  0.4246E+01  0.4042E+02  0.3708E+02
     11.103  0.4185E+01  0.3836E+01  0.4072E+02  0.3735E+02
     11.174  0.4178E+01  0.3503E+01  0.4101E+02  0.3760E+02
     11.244  0.3748E+01  0.3503E+01  0.4127E+02  0.3785E+02
     11.314  0.3493E+01  0.3752E+01  0.4152E+02  0.3811E+02
     11.384  0.3310E+01  0.4160E+01  0.4175E+02  0.3840E+02
     11.455  0.3320E+01  0.4423E+01  0.4198E+02  0.3871E+02
     11.525  0.3592E+01  0.4500E+01  0.4224E+02  0.3903E+02
     11.595  0.3714E+01  0.4707E+01  0.4250E+02  0.3936E+02
     11.665  0.3735E+01  0.4995E+01  0.4276E+02  0.3971E+02
     11.736  0.3690E+01  0.4851E+01  0.4302E+02  0.4005E+02
     11.806  0.3162E+01  0.4507E+01  0.4324E+02  0.4037E+02
     11.876  0.2646E+01  0.4881E+01  0.4343E+02  0.4071E+02
     11.946  0.2757E+01  0.5637E+01  0.4362E+02  0.4111E+02
     12.017  0.3054E+01  0.5853E+01  0.4384E+02  0.4152E+02
     12.087  0.3304E+01  0.5524E+01  0.4407E+02  0.4191E+02
     12.157  0.3250E+01  0.5062E+01  0.4430E+02  0.4227E+02
     12.227  0.2967E+01  0.4578E+01  0.4451E+02  0.4259E+02
     12.298  0.3013E+01  0.4284E+01  0.4472E+02  0.4289E+02
     12.368  0.3432E+01  0.4209E+01  0.4496E+02  0.4318E+02
     12.438  0.3916E+01  0.3937E+01  0.4524E+02  0.4346E+02
     12.508  0.4103E+01  0.3623E+01  0.4552E+02  0.4372E+02
     12.579  0.3933E+01  0.3444E+01  0.4580E+02  0.4396E+02
     12.649  0.4030E+01  0.3477E+01  0.4608E+02  0.4420E+02
     12.719  0.4470E+01  0.3640E+01  0.4640E+02  0.4446E+02
     12.789  0.4338E+01  0.3629E+01  0.4670E+02  0.4471E+02
     12.860  0.3907E+01  0.3515E+01  0.4698E+02  0.4496E+02
     12.930  0.4102E+01  0.4026E+01  0.4727E+02  0.4524E+02
     13.000  0.4615E+01  0.4781E+01  0.4759E+02  0.4558E+02
     13.070  0.4858E+01  0.5099E+01  0.4793E+02  0.4594E+02
     13.141  0.4773E+01  0.5040E+01  0.4827E+02  0.4629E+02
     13.211  0.4154E+01  0.4971E+01  0.4856E+02  0.4664E+02
     13.281  0.3108E+01  0.4878E+01  0.4878E+02  0.4698E+02
     13.351  0.2497E+01  0.4539E+01  0.4895E+02  0.4730E+02
     13.422  0.2658E+01  0.4345E+01  0.4914E+02  0.4761E+02
     13.492  0.3070E+01  0.4335E+01  0.4936E+02  0.4791E+02
     13.562  0.3394E+01  0.4416E+01  0.4959E+02  0.4822E+02
     13.632  0.3410E+01  0.4366E+01  0.4983E+02  0.4853E+02
     13.703  0.3328E+01  0.3884E+01  0.5007E+02  0.4880E+02
     13.773  0.3284E+01  0.3237E+01  0.5030E+02  0.4903E+02
     13.843  0.3293E+01  0.2936E+01  0.5053E+02  0.4924E+02
     13.913  0.3466E+01  0.3005E+01  0.5077E+02  0.4945E+02
     13.984  0.3545E+01  0.3389E+01  0.5102E+02  0.4969E+02
     14.054  0.3101E+01  0.3886E+01  0.5124E+02  0.4996E+02
     14.124  0.2514E+01  0.3986E+01  0.5142E+02  0.5024E+02
     14.194  0.2523E+01  0.3647E+01  0.5160E+02  0.5050E+02
     14.265  0.2874E+01  0.3402E+01  0.5180E+02  0.5074E+02
     14.335  0.3080E+01  0.3520E+01  0.5201E+02  0.5098E+02
     14.405  0.2899E+01  0.3706E+01  0.5222E+02  0.5125E+02
     14.475  0.2589E+01  0.3584E+01  0.5240E+02  0.5150E+02
     14.546  0.2769E+01  0.3231E+01  0.5259E+02  0.5172E+02
     14.616  0.3330E+01  0.2764E+01  0.5283E+02  0.5192E+02
     14.686  0.3787E+01  0.2482E+01  0.5309E+02  0.5209E+02
     14.756  0.3622E+01  0.2386E+01  0.5335E+02  0.5226E+02
     14.827  0.3476E+01  0.2514E+01  0.5359E+02  0.5244E+02
     14.897  0.3391E+01  0.2837E+01  0.5383E+02  0.5264E+02
     14.967  0.2993E+01  0.3386E+01  0.5404E+02  0.5288E+02
     15.037  0.2890E+01  0.3794E+01  0.5425E+02  0.5314E+02
     15.108  0.3053E+01  0.3612E+01  0.5446E+02  0.5340E+02
     15.178  0.2990E+01  0.3516E+01  0.5467E+02  0.5364E+02
     15.248  0.2665E+01  0.3442E+01  0.5486E+02  0.5388E+02
     15.318  0.2298E+01  0.3080E+01  0.5502E+02  0.5410E+02
     15.389  0.2091E+01  0.2980E+01  0.5517E+02  0.5431E+02
     15.459  0.1884E+01  0.2905E+01  0.5530E+02  0.5452E+02
     15.529  0.1574E+01  0.2660E+01  0.5541E+02  0.5470E+02
     15.599  0.1213E+01  0.2530E+01  0.5550E+02  0.5488E+02
     15.670  0.9203E+00  0.2540E+01  0.5556E+02  0.5506E+02
     15.740  0.9498E+00  0.2388E+01  0.5563E+02  0.5523E+02
     15.810  0.1065E+01  0.2095E+01  0.5570E+02  0.5537E+02
     15.880  0.9213E+00  0.1753E+01  0.5577E+02  0.5550E+02
     15.951  0.7163E+00  0.1457E+01  0.5582E+02  0.5560E+02
     16.021  0.5209E+00  0.1208E+01  0.5585E+02  0.5568E+02
     16.091  0.4492E+00  0.9822E+00  0.5589E+02  0.5575E+02
     16.161  0.4746E+00  0.8248E+00  0.5592E+02  0.5581E+02
     16.232  0.3915E+00  0.6640E+00  0.5595E+02  0.5586E+02
     16.302  0.2525E+00  0.6086E+00  0.5596E+02  0.5590E+02
     16.372  0.1507E+00  0.5384E+00  0.5597E+02  0.5594E+02
     16.442  0.1200E+00  0.3079E+00  0.5598E+02  0.5596E+02
     16.513  0.1088E+00  0.1509E+00  0.5599E+02  0.5597E+02
     16.583  0.7666E-01  0.1192E+00  0.5600E+02  0.5598E+02
     16.653  0.3785E-01  0.1026E+00  0.5600E+02  0.5599E+02
     16.723  0.1264E-01  0.6074E-01  0.5600E+02  0.5599E+02
     16.794  0.3372E-02  0.4370E-01  0.5600E+02  0.5599E+02
     16.864  0.6708E-03  0.4185E-01  0.5600E+02  0.5600E+02
     16.934  0.1658E-03  0.2333E-01  0.5600E+02  0.5600E+02
     17.004  0.0000E+00  0.7783E-02  0.5600E+02  0.5600E+02
     17.075  0.0000E+00  0.2024E-02  0.5600E+02  0.5600E+02
     17.145  0.0000E+00  0.5082E-03  0.5600E+02  0.5600E+02
     17.215  0.0000E+00  0.1254E-03  0.5600E+02  0.5600E+02
     17.285  0.0000E+00  0.0000E+00  0.5600E+02  0.5600E+02
     17.356  0.0000E+00  0.0000E+00  0.5600E+02  0.5600E+02
     17.426  0.0000E+00  0.0000E+00  0.5600E+02  0.5600E+02
     17.496  0.0000E+00  0.0000E+00  0.5600E+02  0.5600E+02
     17.566  0.0000E+00  0.0000E+00  0.5600E+02  0.5600E+02
     17.637  0.0000E+00  0.0000E+00  0.5600E+02  0.5600E+02
     17.707  0.0000E+00  0.0000E+00  0.5600E+02  0.5600E+02
     17.777  0.0000E+00  0.0000E+00  0.5600E+02  0.5600E+02
     17.77718576     -3.29790892  301      9.10375904      1.00000000
     -3.298  0.0000E+00  0.0000E+00  0.0000E+00  0.0000E+00  0.0000E+00  0.0000E+00  0.0000E+00  0.0000E+00  0.0000E+00  0.0000E+00  0.0000E+00  0.0000E+00  0.0000E+00  0.0000E+00  0.0000E+00  0.0000E+00  0.0000E+00  0.0000E+00
     -3.228  0.0000E+00  0.0000E+00  0.0000E+00  0.0000E+00  0.0000E+00  0.0000E+00  0.0000E+00  0.0000E+00  0.0000E+00  0.0000E+00  0.0000E+00  0.0000E+00  0.0000E+00  0.0000E+00  0.0000E+00  0.0000E+00  0.0000E+00  0.0000E+00
     -3.157  0.0000E+00  0.0000E+00  0.0000E+00  0.0000E+00  0.0000E+00  0.0000E+00  0.0000E+00  0.0000E+00  0.0000E+00  0.0000E+00  0.0000E+00  0.0000E+00  0.0000E+00  0.0000E+00  0.0000E+00  0.0000E+00  0.0000E+00  0.0000E+00
     -3.087  0.0000E+00  0.0000E+00  0.0000E+00  0.0000E+00  0.0000E+00  0.0000E+00  0.0000E+00  0.0000E+00  0.0000E+00  0.0000E+00  0.0000E+00  0.0000E+00  0.0000E+00  0.0000E+00  0.0000E+00  0.0000E+00  0.0000E+00  0.0000E+00
     -3.017  0.0000E+00  0.0000E+00  0.0000E+00  0.0000E+00  0.0000E+00  0.0000E+00  0.0000E+00  0.0000E+00  0.0000E+00  0.0000E+00  0.0000E+00  0.0000E+00  0.0000E+00  0.0000E+00  0.0000E+00  0.0000E+00  0.0000E+00  0.0000E+00
     -2.947  0.0000E+00  0.0000E+00  0.0000E+00  0.0000E+00  0.0000E+00  0.0000E+00  0.0000E+00  0.0000E+00  0.0000E+00  0.0000E+00  0.0000E+00  0.0000E+00  0.0000E+00  0.0000E+00  0.0000E+00  0.0000E+00  0.0000E+00  0.0000E+00
     -2.876  0.0000E+00  0.0000E+00  0.0000E+00  0.0000E+00  0.0000E+00  0.0000E+00  0.0000E+00  0.0000E+00  0.0000E+00  0.0000E+00  0.0000E+00  0.0000E+00  0.0000E+00  0.0000E+00  0.0000E+00  0.0000E+00  0.0000E+00  0.0000E+00
     -2.806  0.7470E-07  0.0000E+00  0.3784E-20  0.0000E+00  0.1594E-09  0.0000E+00  0.3784E-20  0.0000E+00  0.2007E-16  0.0000E+00  0.2191E-16  0.0000E+00  0.5178E-11  0.0000E+00  0.2191E-16  0.0000E+00  0.1411E-15  0.0000E+00
     -2.736  0.7159E-06  0.1141E-06  0.1585E-08  0.4014E-19  0.3367E-08  0.9366E-10  0.1585E-08  0.4014E-19  0.7053E-16  0.1308E-18  0.8969E-11  0.1205E-16  0.5948E-10  0.2014E-10  0.8969E-11  0.1205E-16  0.7209E-11  0.2280E-14
     -2.666  0.3487E-05  0.1095E-05  0.1175E-07  0.2520E-08  0.2129E-07  0.3797E-08  0.1175E-07  0.2520E-08  0.5600E-10  0.5900E-17  0.1277E-09  0.7104E-11  0.2958E-09  0.2082E-09  0.1277E-09  0.7104E-11  0.3746E-10  0.9053E-11
     -2.595  0.1389E-04  0.5337E-05  0.4847E-07  0.1870E-07  0.8702E-07  0.2628E-07  0.4847E-07  0.1870E-07  0.2922E-09  0.8471E-10  0.5998E-09  0.1415E-09  0.1163E-08  0.1027E-08  0.5998E-09  0.1415E-09  0.1372E-09  0.4696E-10
     -2.525  0.5596E-04  0.2123E-04  0.1983E-06  0.7708E-07  0.3530E-06  0.1082E-06  0.1983E-06  0.7708E-07  0.1069E-08  0.4413E-09  0.2314E-08  0.6908E-09  0.4878E-08  0.4064E-08  0.2314E-08  0.6908E-09  0.7188E-09  0.1719E-09
     -2.455  0.2221E-03  0.8500E-04  0.8365E-06  0.3149E-06  0.1459E-05  0.4377E-06  0.8365E-06  0.3149E-06  0.4988E-08  0.1614E-08  0.1028E-07  0.2617E-08  0.1993E-07  0.1655E-07  0.1028E-07  0.2617E-08  0.3298E-08  0.9014E-09
     -2.385  0.7994E-03  0.3302E-03  0.3259E-05  0.1318E-05  0.5556E-05  0.1809E-05  0.3259E-05  0.1318E-05  0.2088E-07  0.7521E-08  0.4172E-07  0.1171E-07  0.7278E-07  0.6517E-07  0.4172E-07  0.1171E-07  0.1266E-07  0.4104E-08
     -2.314  0.2333E-02  0.1119E-02  0.1118E-04  0.4985E-05  0.1826E-04  0.6761E-05  0.1118E-04  0.4985E-05  0.7796E-07  0.3112E-07  0.1504E-06  0.4728E-07  0.2207E-06  0.2231E-06  0.1504E-06  0.4728E-07  0.4337E-07  0.1530E-07
     -2.244  0.4924E-02  0.2932E-02  0.2995E-04  0.1584E-04  0.4641E-04  0.2112E-04  0.2995E-04  0.1584E-04  0.2553E-06  0.1122E-06  0.4573E-06  0.1650E-06  0.5052E-06  0.5978E-06  0.4573E-06  0.1650E-06  0.1233E-06  0.4905E-07
     -2.174  0.7242E-02  0.5404E-02  0.5906E-04  0.3782E-04  0.8639E-04  0.4933E-04  0.5906E-04  0.3782E-04  0.6262E-06  0.3329E-06  0.1048E-05  0.4671E-06  0.9102E-06  0.1160E-05  0.1048E-05  0.4671E-06  0.3189E-06  0.1318E-06
     -2.104  0.8609E-02  0.7116E-02  0.9976E-04  0.6849E-04  0.1376E-03  0.8630E-04  0.9976E-04  0.6849E-04  0.1254E-05  0.7347E-06  0.1995E-05  0.9900E-06  0.1642E-05  0.1763E-05  0.1995E-05  0.9900E-06  0.8360E-06  0.3448E-06
     -2.033  0.1109E-01  0.8490E-02  0.1711E-03  0.1162E-03  0.2321E-03  0.1426E-03  0.1711E-03  0.1162E-03  0.2622E-05  0.1479E-05  0.3985E-05  0.1917E-05  0.2980E-05  0.2721E-05  0.3985E-05  0.1917E-05  0.1762E-05  0.8597E-06
     -1.963  0.1370E-01  0.1121E-01  0.2455E-03  0.1927E-03  0.3397E-03  0.2414E-03  0.2455E-03  0.1927E-03  0.4745E-05  0.3041E-05  0.6956E-05  0.3867E-05  0.4100E-05  0.4175E-05  0.6956E-05  0.3867E-05  0.2455E-05  0.1559E-05
     -1.893  0.1269E-01  0.1249E-01  0.2615E-03  0.2439E-03  0.3739E-03  0.3154E-03  0.2615E-03  0.2439E-03  0.6432E-05  0.4872E-05  0.9119E-05  0.6109E-05  0.4469E-05  0.4869E-05  0.9119E-05  0.6109E-05  0.2663E-05  0.1879E-05
     -1.823  0.1209E-01  0.1081E-01  0.3120E-03  0.2528E-03  0.4517E-03  0.3297E-03  0.3120E-03  0.2528E-03  0.9332E-05  0.6434E-05  0.1311E-04  0.7839E-05  0.6291E-05  0.5047E-05  0.1311E-04  0.7839E-05  0.4113E-05  0.2175E-05
     -1.752  0.1533E-01  0.1169E-01  0.4773E-03  0.3465E-03  0.6314E-03  0.4388E-03  0.4773E-03  0.3465E-03  0.1465E-04  0.1004E-04  0.2084E-04  0.1229E-04  0.1063E-04  0.7575E-05  0.2084E-04  0.1229E-04  0.8341E-05  0.4018E-05
     -1.682  0.1687E-01  0.1495E-01  0.6095E-03  0.5136E-03  0.6760E-03  0.6066E-03  0.6095E-03  0.5136E-03  0.1832E-04  0.1457E-04  0.2542E-04  0.1811E-04  0.1454E-04  0.1238E-04  0.2542E-04  0.1811E-04  0.1343E-04  0.7737E-05
     -1.612  0.1579E-01  0.1548E-01  0.6379E-03  0.5968E-03  0.6813E-03  0.6577E-03  0.6379E-03  0.5968E-03  0.2233E-04  0.1730E-04  0.2987E-04  0.2089E-04  0.1599E-04  0.1555E-04  0.2987E-04  0.2089E-04  0.1485E-04  0.1068E-04
     -1.542  0.1598E-01  0.1451E-01  0.6799E-03  0.6062E-03  0.8679E-03  0.7274E-03  0.6799E-03  0.6062E-03  0.3231E-04  0.2244E-04  0.4192E-04  0.2646E-04  0.1753E-04  0.1551E-04  0.4192E-04  0.2646E-04  0.1363E-04  0.1035E-04
     -1.471  0.1734E-01  0.1506E-01  0.8172E-03  0.6889E-03  0.9905E-03  0.8890E-03  0.8172E-03  0.6889E-03  0.4726E-04  0.3384E-04  0.5469E-04  0.3860E-04  0.2021E-04  0.1635E-04  0.5469E-04  0.3860E-04  0.1559E-04  0.1011E-04
     -1.401  0.1634E-01  0.1605E-01  0.8635E-03  0.8279E-03  0.9114E-03  0.9602E-03  0.8635E-03  0.8279E-03  0.5193E-04  0.4553E-04  0.5807E-04  0.4921E-04  0.2077E-04  0.1866E-04  0.5807E-04  0.4921E-04  0.1898E-04  0.1254E-04
     -1.331  0.1486E-01  0.1450E-01  0.8616E-03  0.8149E-03  0.9498E-03  0.9230E-03  0.8616E-03  0.8149E-03  0.4675E-04  0.4338E-04  0.6245E-04  0.4988E-04  0.2471E-04  0.1934E-04  0.6245E-04  0.4988E-04  0.2614E-04  0.1541E-04
     -1.261  0.1792E-01  0.1406E-01  0.1165E-02  0.8933E-03  0.1273E-02  0.1029E-02  0.1165E-02  0.8933E-03  0.6270E-04  0.4384E-04  0.8477E-04  0.5522E-04  0.4080E-04  0.2623E-04  0.8477E-04  0.5522E-04  0.4332E-04  0.2331E-04
     -1.190  0.2082E-01  0.1743E-01  0.1450E-02  0.1242E-02  0.1599E-02  0.1391E-02  0.1450E-02  0.1242E-02  0.9115E-04  0.6632E-04  0.1023E-03  0.7537E-04  0.6032E-04  0.4279E-04  0.1023E-03  0.7537E-04  0.5467E-04  0.3583E-04
     -1.120  0.1995E-01  0.1918E-01  0.1442E-02  0.1418E-02  0.1708E-02  0.1711E-02  0.1442E-02  0.1418E-02  0.1110E-03  0.8950E-04  0.1074E-03  0.9157E-04  0.6735E-04  0.5347E-04  0.1074E-03  0.9157E-04  0.5119E-04  0.3927E-04
     -1.050  0.2013E-01  0.1822E-01  0.1564E-02  0.1421E-02  0.1835E-02  0.1762E-02  0.1564E-02  0.1421E-02  0.1318E-03  0.1043E-03  0.1393E-03  0.1046E-03  0.6637E-04  0.5266E-04  0.1393E-03  0.1046E-03  0.5546E-04  0.3776E-04
     -0.980  0.2131E-01  0.1891E-01  0.1709E-02  0.1580E-02  0.2155E-02  0.1968E-02  0.1709E-02  0.1580E-02  0.1484E-03  0.1224E-03  0.1829E-03  0.1381E-03  0.6761E-04  0.5369E-04  0.1829E-03  0.1381E-03  0.6043E-04  0.4288E-04
     -0.909  0.1790E-01  0.1797E-01  0.1442E-02  0.1531E-02  0.2075E-02  0.2111E-02  0.1442E-02  0.1531E-02  0.1370E-03  0.1291E-03  0.1800E-03  0.1574E-03  0.5974E-04  0.5096E-04  0.1800E-03  0.1574E-03  0.4776E-04  0.3901E-04
     -0.839  0.1481E-01  0.1378E-01  0.1389E-02  0.1260E-02  0.1728E-02  0.1738E-02  0.1389E-02  0.1260E-02  0.1484E-03  0.1211E-03  0.1799E-03  0.1428E-03  0.5321E-04  0.4064E-04  0.1799E-03  0.1428E-03  0.4942E-04  0.3042E-04
     -0.769  0.1740E-01  0.1377E-01  0.1931E-02  0.1502E-02  0.1947E-02  0.1741E-02  0.1931E-02  0.1502E-02  0.2191E-03  0.1534E-03  0.2256E-03  0.1645E-03  0.7944E-04  0.5005E-04  0.2256E-03  0.1645E-03  0.8051E-04  0.4262E-04
     -0.699  0.2106E-01  0.1757E-01  0.2507E-02  0.2141E-02  0.2613E-02  0.2418E-02  0.2507E-02  0.2141E-02  0.2796E-03  0.2160E-03  0.2683E-03  0.2147E-03  0.1300E-03  0.8733E-04  0.2683E-03  0.2147E-03  0.1227E-03  0.7331E-04
     -0.628  0.2217E-01  0.2035E-01  0.2661E-02  0.2577E-02  0.3374E-02  0.3269E-02  0.2661E-02  0.2577E-02  0.2736E-03  0.2455E-03  0.3113E-03  0.2594E-03  0.1587E-03  0.1206E-03  0.3113E-03  0.2594E-03  0.1468E-03  0.1009E-03
     -0.558  0.2108E-01  0.1938E-01  0.2621E-02  0.2518E-02  0.3581E-02  0.3551E-02  0.2621E-02  0.2518E-02  0.2830E-03  0.2362E-03  0.3516E-03  0.2873E-03  0.1523E-03  0.1181E-03  0.3516E-03  0.2873E-03  0.1464E-03  0.1037E-03
     -0.488  0.2119E-01  0.1842E-01  0.2891E-02  0.2605E-02  0.3586E-02  0.3488E-02  0.2891E-02  0.2605E-02  0.3582E-03  0.2845E-03  0.4071E-03  0.3267E-03  0.1545E-03  0.1124E-03  0.4071E-03  0.3267E-03  0.1549E-03  0.1015E-03
     -0.418  0.1996E-01  0.1863E-01  0.2784E-02  0.2791E-02  0.3921E-02  0.3886E-02  0.2784E-02  0.2791E-02  0.3708E-03  0.3318E-03  0.4477E-03  0.3782E-03  0.1587E-03  0.1226E-03  0.4477E-03  0.3782E-03  0.1435E-03  0.1057E-03
     -0.347  0.1651E-01  0.1526E-01  0.2414E-02  0.2354E-02  0.3728E-02  0.3781E-02  0.2414E-02  0.2354E-02  0.3873E-03  0.3073E-03  0.4503E-03  0.3601E-03  0.1353E-03  0.1062E-03  0.4503E-03  0.3601E-03  0.1106E-03  0.8570E-04
     -0.277  0.1635E-01  0.1306E-01  0.2746E-02  0.2259E-02  0.3873E-02  0.3729E-02  0.2746E-02  0.2259E-02  0.5171E-03  0.3632E-03  0.5460E-03  0.3934E-03  0.1294E-03  0.9100E-04  0.5460E-03  0.3934E-03  0.1165E-03  0.7192E-04
     -0.207  0.1767E-01  0.1531E-01  0.3166E-02  0.2902E-02  0.4920E-02  0.4758E-02  0.3166E-02  0.2902E-02  0.6150E-03  0.5016E-03  0.6761E-03  0.5599E-03  0.1584E-03  0.1114E-03  0.6761E-03  0.5599E-03  0.1388E-03  0.8865E-04
     -0.137  0.1803E-01  0.1649E-01  0.3541E-02  0.3365E-02  0.5552E-02  0.5458E-02  0.3541E-02  0.3365E-02  0.6547E-03  0.5699E-03  0.7627E-03  0.6650E-03  0.1899E-03  0.1393E-03  0.7627E-03  0.6650E-03  0.1696E-03  0.1098E-03
     -0.066  0.1834E-01  0.1640E-01  0.4232E-02  0.3891E-02  0.5579E-02  0.5528E-02  0.4232E-02  0.3891E-02  0.6669E-03  0.5827E-03  0.8599E-03  0.7142E-03  0.1997E-03  0.1552E-03  0.8599E-03  0.7142E-03  0.2312E-03  0.1450E-03
      0.004  0.1719E-01  0.1541E-01  0.4602E-02  0.4343E-02  0.5192E-02  0.4964E-02  0.4602E-02  0.4343E-02  0.6707E-03  0.5698E-03  0.8994E-03  0.7368E-03  0.1864E-03  0.1513E-03  0.8994E-03  0.7368E-03  0.2638E-03  0.1747E-03
      0.074  0.1424E-01  0.1277E-01  0.4548E-02  0.4268E-02  0.4390E-02  0.4115E-02  0.4548E-02  0.4268E-02  0.7070E-03  0.5723E-03  0.8757E-03  0.7039E-03  0.1768E-03  0.1409E-03  0.8757E-03  0.7039E-03  0.2393E-03  0.1616E-03
      0.144  0.1281E-01  0.1090E-01  0.4926E-02  0.4461E-02  0.3967E-02  0.3852E-02  0.4926E-02  0.4461E-02  0.9006E-03  0.6661E-03  0.9472E-03  0.7378E-03  0.1875E-03  0.1426E-03  0.9472E-03  0.7378E-03  0.2257E-03  0.1494E-03
      0.215  0.1398E-01  0.1147E-01  0.5359E-02  0.4931E-02  0.4821E-02  0.4500E-02  0.5359E-02  0.4931E-02  0.1221E-02  0.9086E-03  0.1250E-02  0.9518E-03  0.2016E-03  0.1549E-03  0.1250E-02  0.9518E-03  0.2098E-03  0.1417E-03