  16  16   1   0
  0.1907817E+02  0.4170825E-09  0.4170825E-09  0.1754740E-08  0.5000000E-15
  1.000000000000000E-004
  CAR 
 unknown system                          
     12.26699436     -4.35833857  301      5.78772966      1.00000000
     -4.358  0.0000E+00  0.0000E+00  0.0000E+00  0.0000E+00
     -4.303  0.0000E+00  0.0000E+00  0.0000E+00  0.0000E+00
     -4.248  0.0000E+00  0.0000E+00  0.0000E+00  0.0000E+00
     -4.192  0.0000E+00  0.0000E+00  0.0000E+00  0.0000E+00
     -4.137  0.0000E+00  0.0000E+00  0.0000E+00  0.0000E+00
     -4.081  0.0000E+00  0.0000E+00  0.0000E+00  0.0000E+00
     -4.026  0.5748E-05  0.7507E-05  0.3185E-06  0.4160E-06
     -3.970  0.4903E-04  0.6466E-04  0.3036E-05  0.3999E-05
     -3.915  0.1922E-03  0.2550E-03  0.1369E-04  0.1813E-04
     -3.860  0.5590E-03  0.7419E-03  0.4466E-04  0.5924E-04
     -3.804  0.1675E-02  0.2288E-02  0.1375E-03  0.1861E-03
     -3.749  0.5170E-02  0.6878E-02  0.4240E-03  0.5672E-03
     -3.693  0.1509E-01  0.1965E-01  0.1260E-02  0.1656E-02
     -3.638  0.4107E-01  0.5247E-01  0.3536E-02  0.4564E-02
     -3.582  0.9842E-01  0.1202E+00  0.8990E-02  0.1122E-01
     -3.527  0.1908E+00  0.2196E+00  0.1956E-01  0.2339E-01
     -3.472  0.2907E+00  0.3177E+00  0.3568E-01  0.4099E-01
     -3.416  0.3749E+00  0.4038E+00  0.5645E-01  0.6337E-01
     -3.361  0.4719E+00  0.5089E+00  0.8261E-01  0.9157E-01
     -3.305  0.5711E+00  0.5918E+00  0.1143E+00  0.1244E+00
     -3.250  0.5942E+00  0.5957E+00  0.1472E+00  0.1574E+00
     -3.195  0.5988E+00  0.6266E+00  0.1804E+00  0.1921E+00
     -3.139  0.6934E+00  0.7418E+00  0.2188E+00  0.2332E+00
     -3.084  0.7887E+00  0.8181E+00  0.2625E+00  0.2786E+00
     -3.028  0.8045E+00  0.8239E+00  0.3071E+00  0.3242E+00
     -2.973  0.8156E+00  0.8456E+00  0.3523E+00  0.3711E+00
     -2.917  0.8611E+00  0.8911E+00  0.4001E+00  0.4205E+00
     -2.862  0.8698E+00  0.8853E+00  0.4483E+00  0.4696E+00
     -2.807  0.8507E+00  0.8927E+00  0.4955E+00  0.5191E+00
     -2.751  0.9367E+00  0.1023E+01  0.5474E+00  0.5758E+00
     -2.696  0.1084E+01  0.1150E+01  0.6075E+00  0.6396E+00
     -2.640  0.1141E+01  0.1176E+01  0.6707E+00  0.7048E+00
     -2.585  0.1155E+01  0.1195E+01  0.7347E+00  0.7711E+00
     -2.530  0.1182E+01  0.1168E+01  0.8003E+00  0.8358E+00
     -2.474  0.1097E+01  0.1043E+01  0.8612E+00  0.8936E+00
     -2.419  0.9924E+00  0.1052E+01  0.9162E+00  0.9519E+00
     -2.363  0.1087E+01  0.1267E+01  0.9764E+00  0.1022E+01
     -2.308  0.1307E+01  0.1479E+01  0.1049E+01  0.1104E+01
     -2.252  0.1457E+01  0.1521E+01  0.1130E+01  0.1189E+01
     -2.197  0.1474E+01  0.1507E+01  0.1211E+01  0.1272E+01
     -2.142  0.1477E+01  0.1524E+01  0.1293E+01  0.1357E+01
     -2.086  0.1458E+01  0.1416E+01  0.1374E+01  0.1435E+01
     -2.031  0.1337E+01  0.1343E+01  0.1448E+01  0.1510E+01
     -1.975  0.1323E+01  0.1513E+01  0.1522E+01  0.1593E+01
     -1.920  0.1497E+01  0.1720E+01  0.1605E+01  0.1689E+01
     -1.865  0.1653E+01  0.1820E+01  0.1696E+01  0.1790E+01
     -1.809  0.1742E+01  0.1792E+01  0.1793E+01  0.1889E+01
     -1.754  0.1737E+01  0.1681E+01  0.1889E+01  0.1982E+01
     -1.698  0.1623E+01  0.1623E+01  0.1979E+01  0.2072E+01
     -1.643  0.1573E+01  0.1676E+01  0.2066E+01  0.2165E+01
     -1.587  0.1672E+01  0.1797E+01  0.2159E+01  0.2265E+01
     -1.532  0.1819E+01  0.1794E+01  0.2260E+01  0.2364E+01
     -1.477  0.1804E+01  0.1628E+01  0.2360E+01  0.2455E+01
     -1.421  0.1633E+01  0.1472E+01  0.2450E+01  0.2536E+01
     -1.366  0.1492E+01  0.1300E+01  0.2533E+01  0.2608E+01
     -1.310  0.1323E+01  0.1203E+01  0.2607E+01  0.2675E+01
     -1.255  0.1251E+01  0.1318E+01  0.2676E+01  0.2748E+01
     -1.200  0.1401E+01  0.1583E+01  0.2754E+01  0.2836E+01
     -1.144  0.1670E+01  0.1732E+01  0.2846E+01  0.2932E+01
     -1.089  0.1816E+01  0.1603E+01  0.2947E+01  0.3021E+01
     -1.033  0.1700E+01  0.1465E+01  0.3041E+01  0.3102E+01
     -0.978  0.1564E+01  0.1431E+01  0.3128E+01  0.3181E+01
     -0.922  0.1556E+01  0.1418E+01  0.3214E+01  0.3260E+01
     -0.867  0.1653E+01  0.1508E+01  0.3306E+01  0.3344E+01
     -0.812  0.1857E+01  0.1709E+01  0.3409E+01  0.3438E+01
     -0.756  0.1997E+01  0.1840E+01  0.3519E+01  0.3540E+01
     -0.701  0.1965E+01  0.1815E+01  0.3628E+01  0.3641E+01
     -0.645  0.1844E+01  0.1770E+01  0.3731E+01  0.3739E+01
     -0.590  0.1730E+01  0.1804E+01  0.3827E+01  0.3839E+01
     -0.535  0.1750E+01  0.1814E+01  0.3924E+01  0.3940E+01
     -0.479  0.1876E+01  0.1854E+01  0.4028E+01  0.4043E+01
     -0.424  0.1982E+01  0.1918E+01  0.4138E+01  0.4149E+01
     -0.368  0.2028E+01  0.2020E+01  0.4250E+01  0.4261E+01
     -0.313  0.2108E+01  0.2201E+01  0.4367E+01  0.4383E+01
     -0.257  0.2209E+01  0.2332E+01  0.4489E+01  0.4512E+01
     -0.202  0.2289E+01  0.2353E+01  0.4616E+01  0.4643E+01
     -0.147  0.2405E+01  0.2331E+01  0.4750E+01  0.4772E+01
     -0.091  0.2430E+01  0.2321E+01  0.4884E+01  0.4901E+01
     -0.036  0.2347E+01  0.2238E+01  0.5014E+01  0.5025E+01
      0.020  0.2266E+01  0.2110E+01  0.5140E+01  0.5142E+01
      0.075  0.2180E+01  0.2053E+01  0.5261E+01  0.5256E+01
      0.131  0.2094E+01  0.2078E+01  0.5377E+01  0.5371E+01
      0.186  0.2083E+01  0.2102E+01  0.5493E+01  0.5487E+01
      0.241  0.2085E+01  0.2112E+01  0.5608E+01  0.5604E+01
      0.297  0.2107E+01  0.2153E+01  0.5725E+01  0.5724E+01
      0.352  0.2221E+01  0.2221E+01  0.5848E+01  0.5847E+01
      0.408  0.2301E+01  0.2194E+01  0.5976E+01  0.5969E+01
      0.463  0.2187E+01  0.2041E+01  0.6097E+01  0.6082E+01
      0.518  0.2005E+01  0.1858E+01  0.6208E+01  0.6185E+01
      0.574  0.1978E+01  0.1757E+01  0.6318E+01  0.6282E+01
      0.629  0.2219E+01  0.1779E+01  0.6441E+01  0.6381E+01
      0.685  0.2683E+01  0.2027E+01  0.6590E+01  0.6493E+01
      0.740  0.3018E+01  0.2442E+01  0.6757E+01  0.6629E+01
      0.796  0.2958E+01  0.2729E+01  0.6921E+01  0.6780E+01
      0.851  0.2683E+01  0.2751E+01  0.7070E+01  0.6933E+01
      0.906  0.2389E+01  0.2599E+01  0.7202E+01  0.7077E+01
      0.962  0.2264E+01  0.2366E+01  0.7328E+01  0.7208E+01
      1.017  0.2361E+01  0.2210E+01  0.7459E+01  0.7330E+01
      1.073  0.2515E+01  0.2296E+01  0.7598E+01  0.7458E+01
      1.128  0.2683E+01  0.2494E+01  0.7747E+01  0.7596E+01
      1.183  0.2872E+01  0.2659E+01  0.7906E+01  0.7743E+01
      1.239  0.2943E+01  0.2774E+01  0.8070E+01  0.7897E+01
      1.294  0.2861E+01  0.2761E+01  0.8228E+01  0.8050E+01
      1.350  0.2763E+01  0.2683E+01  0.8381E+01  0.8199E+01
      1.405  0.2852E+01  0.2647E+01  0.8540E+01  0.8346E+01
      1.461  0.3169E+01  0.2664E+01  0.8715E+01  0.8494E+01
      1.516  0.3385E+01  0.2784E+01  0.8903E+01  0.8648E+01
      1.571  0.3371E+01  0.2976E+01  0.9090E+01  0.8813E+01
      1.627  0.3189E+01  0.3051E+01  0.9267E+01  0.8982E+01
      1.682  0.2915E+01  0.2951E+01  0.9428E+01  0.9146E+01
      1.738  0.2625E+01  0.2645E+01  0.9574E+01  0.9293E+01
      1.793  0.2388E+01  0.2250E+01  0.9706E+01  0.9417E+01
      1.848  0.2269E+01  0.2025E+01  0.9832E+01  0.9530E+01
      1.904  0.2356E+01  0.1993E+01  0.9963E+01  0.9640E+01
      1.959  0.2508E+01  0.2022E+01  0.1010E+02  0.9752E+01
      2.015  0.2497E+01  0.2138E+01  0.1024E+02  0.9871E+01
      2.070  0.2519E+01  0.2297E+01  0.1038E+02  0.9998E+01
      2.126  0.2760E+01  0.2270E+01  0.1053E+02  0.1012E+02
      2.181  0.3101E+01  0.2092E+01  0.1071E+02  0.1024E+02
      2.236  0.3310E+01  0.2082E+01  0.1089E+02  0.1036E+02
      2.292  0.3335E+01  0.2306E+01  0.1107E+02  0.1048E+02
      2.347  0.3221E+01  0.2613E+01  0.1125E+02  0.1063E+02
      2.403  0.2992E+01  0.2837E+01  0.1142E+02  0.1079E+02
      2.458  0.2926E+01  0.2979E+01  0.1158E+02  0.1095E+02
      2.513  0.3264E+01  0.3023E+01  0.1176E+02  0.1112E+02
      2.569  0.3693E+01  0.2901E+01  0.1197E+02  0.1128E+02
      2.624  0.3967E+01  0.2725E+01  0.1219E+02  0.1143E+02
      2.680  0.4053E+01  0.2660E+01  0.1241E+02  0.1158E+02
      2.735  0.4018E+01  0.2641E+01  0.1263E+02  0.1172E+02
      2.791  0.4017E+01  0.2663E+01  0.1286E+02  0.1187E+02
      2.846  0.4163E+01  0.2897E+01  0.1309E+02  0.1203E+02
      2.901  0.4350E+01  0.3238E+01  0.1333E+02  0.1221E+02
      2.957  0.4388E+01  0.3480E+01  0.1357E+02  0.1241E+02
      3.012  0.4349E+01  0.3643E+01  0.1381E+02  0.1261E+02
      3.068  0.4541E+01  0.3564E+01  0.1406E+02  0.1280E+02
      3.123  0.5105E+01  0.3334E+01  0.1435E+02  0.1299E+02
      3.178  0.5842E+01  0.3227E+01  0.1467E+02  0.1317E+02
      3.234  0.6253E+01  0.3250E+01  0.1502E+02  0.1335E+02
      3.289  0.6251E+01  0.3338E+01  0.1536E+02  0.1353E+02
      3.345  0.6273E+01  0.3396E+01  0.1571E+02  0.1372E+02
      3.400  0.6495E+01  0.3426E+01  0.1607E+02  0.1391E+02
      3.456  0.6771E+01  0.3624E+01  0.1645E+02  0.1411E+02
      3.511  0.7049E+01  0.3784E+01  0.1684E+02  0.1432E+02
      3.566  0.7305E+01  0.3629E+01  0.1724E+02  0.1452E+02
      3.622  0.7367E+01  0.3400E+01  0.1765E+02  0.1471E+02
      3.677  0.7508E+01  0.3425E+01  0.1807E+02  0.1490E+02
      3.733  0.8273E+01  0.3737E+01  0.1853E+02  0.1511E+02
      3.788  0.9547E+01  0.4230E+01  0.1906E+02  0.1534E+02
      3.843  0.1083E+02  0.4500E+01  0.1966E+02  0.1559E+02
      3.899  0.1174E+02  0.4093E+01  0.2031E+02  0.1582E+02
      3.954  0.1208E+02  0.3557E+01  0.2098E+02  0.1602E+02
      4.010  0.1202E+02  0.3550E+01  0.2164E+02  0.1621E+02
      4.065  0.1185E+02  0.3818E+01  0.2230E+02  0.1643E+02
      4.121  0.1161E+02  0.3822E+01  0.2294E+02  0.1664E+02
      4.176  0.1138E+02  0.3514E+01  0.2358E+02  0.1683E+02
      4.231  0.1080E+02  0.3379E+01  0.2417E+02  0.1702E+02
      4.287  0.9539E+01  0.3713E+01  0.2470E+02  0.1723E+02
      4.342  0.8314E+01  0.4147E+01  0.2516E+02  0.1746E+02
      4.398  0.7583E+01  0.4177E+01  0.2558E+02  0.1769E+02
      4.453  0.6947E+01  0.4095E+01  0.2597E+02  0.1792E+02
      4.509  0.6221E+01  0.4221E+01  0.2632E+02  0.1815E+02
      4.564  0.6062E+01  0.4363E+01  0.2665E+02  0.1839E+02
      4.619  0.7342E+01  0.4372E+01  0.2706E+02  0.1863E+02
      4.675  0.1009E+02  0.4304E+01  0.2762E+02  0.1887E+02
      4.730  0.1332E+02  0.4348E+01  0.2836E+02  0.1911E+02
      4.786  0.1516E+02  0.4572E+01  0.2920E+02  0.1937E+02
      4.841  0.1435E+02  0.4816E+01  0.2999E+02  0.1963E+02
      4.896  0.1250E+02  0.4893E+01  0.3069E+02  0.1991E+02
      4.952  0.1120E+02  0.4908E+01  0.3131E+02  0.2018E+02
      5.007  0.9973E+01  0.5135E+01  0.3186E+02  0.2046E+02
      5.063  0.8518E+01  0.5314E+01  0.3233E+02  0.2076E+02
      5.118  0.7509E+01  0.5179E+01  0.3275E+02  0.2104E+02
      5.174  0.7066E+01  0.4874E+01  0.3314E+02  0.2131E+02
      5.229  0.6640E+01  0.4492E+01  0.3351E+02  0.2156E+02
      5.284  0.5967E+01  0.4207E+01  0.3384E+02  0.2180E+02
      5.340  0.5277E+01  0.4401E+01  0.3413E+02  0.2204E+02
      5.395  0.4562E+01  0.4932E+01  0.3439E+02  0.2231E+02
      5.451  0.3790E+01  0.5210E+01  0.3460E+02  0.2260E+02
      5.506  0.3221E+01  0.5115E+01  0.3478E+02  0.2289E+02
      5.561  0.3056E+01  0.4919E+01  0.3494E+02  0.2316E+02
      5.617  0.3327E+01  0.4755E+01  0.3513E+02  0.2342E+02
      5.672  0.3853E+01  0.4492E+01  0.3534E+02  0.2367E+02
      5.728  0.4256E+01  0.4125E+01  0.3558E+02  0.2390E+02
      5.783  0.4620E+01  0.4008E+01  0.3584E+02  0.2412E+02
      5.839  0.5286E+01  0.4282E+01  0.3613E+02  0.2436E+02
      5.894  0.5994E+01  0.4525E+01  0.3646E+02  0.2461E+02
      5.949  0.6183E+01  0.4325E+01  0.3680E+02  0.2485E+02
      6.005  0.5885E+01  0.3823E+01  0.3713E+02  0.2506E+02
      6.060  0.5419E+01  0.3345E+01  0.3743E+02  0.2525E+02
      6.116  0.5074E+01  0.3139E+01  0.3771E+02  0.2542E+02
      6.171  0.5214E+01  0.3258E+01  0.3800E+02  0.2560E+02
      6.226  0.5473E+01  0.3450E+01  0.3830E+02  0.2579E+02
      6.282  0.5294E+01  0.3495E+01  0.3860E+02  0.2599E+02
      6.337  0.4885E+01  0.3528E+01  0.3887E+02  0.2618E+02
      6.393  0.4508E+01  0.3776E+01  0.3912E+02  0.2639E+02
      6.448  0.4199E+01  0.4212E+01  0.3935E+02  0.2663E+02
      6.504  0.4049E+01  0.4572E+01  0.3958E+02  0.2688E+02
      6.559  0.4077E+01  0.4695E+01  0.3980E+02  0.2714E+02
      6.614  0.4263E+01  0.4811E+01  0.4004E+02  0.2741E+02
      6.670  0.4399E+01  0.4992E+01  0.4028E+02  0.2768E+02
      6.725  0.4314E+01  0.5336E+01  0.4052E+02  0.2798E+02
      6.781  0.4143E+01  0.5656E+01  0.4075E+02  0.2829E+02
      6.836  0.4124E+01  0.5794E+01  0.4098E+02  0.2862E+02
      6.891  0.4218E+01  0.6240E+01  0.4121E+02  0.2896E+02
      6.947  0.4241E+01  0.7197E+01  0.4145E+02  0.2936E+02
      7.002  0.4168E+01  0.7945E+01  0.4168E+02  0.2980E+02
      7.058  0.4175E+01  0.8036E+01  0.4191E+02  0.3025E+02
      7.113  0.4233E+01  0.7985E+01  0.4215E+02  0.3069E+02
      7.169  0.4114E+01  0.8341E+01  0.4237E+02  0.3115E+02
      7.224  0.4021E+01  0.9059E+01  0.4260E+02  0.3165E+02
      7.279  0.4280E+01  0.9779E+01  0.4283E+02  0.3220E+02
      7.335  0.4747E+01  0.1037E+02  0.4310E+02  0.3277E+02
      7.390  0.4999E+01  0.1100E+02  0.4338E+02  0.3338E+02
      7.446  0.5066E+01  0.1149E+02  0.4366E+02  0.3402E+02
      7.501  0.5155E+01  0.1179E+02  0.4394E+02  0.3467E+02
      7.556  0.4983E+01  0.1223E+02  0.4422E+02  0.3535E+02
      7.612  0.4445E+01  0.1250E+02  0.4446E+02  0.3604E+02
      7.667  0.4095E+01  0.1227E+02  0.4469E+02  0.3672E+02
      7.723  0.4335E+01  0.1183E+02  0.4493E+02  0.3738E+02
      7.778  0.4754E+01  0.1122E+02  0.4520E+02  0.3800E+02
      7.834  0.4669E+01  0.1019E+02  0.4545E+02  0.3857E+02
      7.889  0.4013E+01  0.9037E+01  0.4568E+02  0.3907E+02
      7.944  0.3332E+01  0.8450E+01  0.4586E+02  0.3954E+02
      8.000  0.3012E+01  0.8597E+01  0.4603E+02  0.4001E+02
      8.055  0.3104E+01  0.8643E+01  0.4620E+02  0.4049E+02
      8.111  0.3530E+01  0.8162E+01  0.4640E+02  0.4094E+02
      8.166  0.4078E+01  0.8056E+01  0.4662E+02  0.4139E+02
      8.221  0.4444E+01  0.8727E+01  0.4687E+02  0.4188E+02
      8.277  0.4406E+01  0.9196E+01  0.4711E+02  0.4238E+02
      8.332  0.4222E+01  0.8976E+01  0.4735E+02  0.4288E+02
      8.388  0.4304E+01  0.8555E+01  0.4759E+02  0.4336E+02
      8.443  0.4697E+01  0.7956E+01  0.4785E+02  0.4380E+02
      8.499  0.5038E+01  0.7303E+01  0.4813E+02  0.4420E+02
      8.554  0.4959E+01  0.7059E+01  0.4840E+02  0.4459E+02
      8.609  0.4499E+01  0.7156E+01  0.4865E+02  0.4499E+02
      8.665  0.3894E+01  0.7153E+01  0.4887E+02  0.4539E+02
      8.720  0.3336E+01  0.7015E+01  0.4905E+02  0.4578E+02
      8.776  0.3022E+01  0.6895E+01  0.4922E+02  0.4616E+02
      8.831  0.2986E+01  0.6800E+01  0.4939E+02  0.4654E+02
      8.887  0.3276E+01  0.6651E+01  0.4957E+02  0.4691E+02
      8.942  0.3649E+01  0.6170E+01  0.4977E+02  0.4725E+02
      8.997  0.3872E+01  0.5647E+01  0.4998E+02  0.4756E+02
      9.053  0.4024E+01  0.5405E+01  0.5021E+02  0.4786E+02
      9.108  0.4208E+01  0.5133E+01  0.5044E+02  0.4815E+02
      9.164  0.4328E+01  0.4803E+01  0.5068E+02  0.4841E+02
      9.219  0.4259E+01  0.4652E+01  0.5092E+02  0.4867E+02
      9.274  0.4163E+01  0.4589E+01  0.5115E+02  0.4892E+02
      9.330  0.4196E+01  0.4406E+01  0.5138E+02  0.4917E+02
      9.385  0.4173E+01  0.4311E+01  0.5161E+02  0.4941E+02
      9.441  0.3865E+01  0.4571E+01  0.5183E+02  0.4966E+02
      9.496  0.3466E+01  0.4955E+01  0.5202E+02  0.4994E+02
      9.552  0.3344E+01  0.5092E+01  0.5220E+02  0.5022E+02
      9.607  0.3495E+01  0.4944E+01  0.5240E+02  0.5049E+02
      9.662  0.3735E+01  0.4509E+01  0.5260E+02  0.5074E+02
      9.718  0.4058E+01  0.4055E+01  0.5283E+02  0.5097E+02
      9.773  0.4310E+01  0.3755E+01  0.5307E+02  0.5118E+02
      9.829  0.4284E+01  0.3690E+01  0.5331E+02  0.5138E+02
      9.884  0.4104E+01  0.3916E+01  0.5353E+02  0.5160E+02
      9.939  0.4201E+01  0.4405E+01  0.5377E+02  0.5184E+02
      9.995  0.4647E+01  0.4881E+01  0.5402E+02  0.5211E+02
     10.050  0.4802E+01  0.5072E+01  0.5429E+02  0.5239E+02
     10.106  0.4187E+01  0.5029E+01  0.5452E+02  0.5267E+02
     10.161  0.3230E+01  0.4832E+01  0.5470E+02  0.5294E+02
     10.217  0.2583E+01  0.4676E+01  0.5485E+02  0.5320E+02
     10.272  0.2395E+01  0.4523E+01  0.5498E+02  0.5345E+02
     10.327  0.2401E+01  0.4333E+01  0.5511E+02  0.5369E+02
     10.383  0.2347E+01  0.4397E+01  0.5524E+02  0.5393E+02
     10.438  0.2147E+01  0.4567E+01  0.5536E+02  0.5419E+02
     10.494  0.1755E+01  0.4455E+01  0.5546E+02  0.5443E+02
     10.549  0.1289E+01  0.4084E+01  0.5553E+02  0.5466E+02
     10.604  0.9533E+00  0.3693E+01  0.5558E+02  0.5487E+02
     10.660  0.7522E+00  0.3277E+01  0.5562E+02  0.5505E+02
     10.715  0.6957E+00  0.2789E+01  0.5566E+02  0.5520E+02
     10.771  0.7564E+00  0.2294E+01  0.5570E+02  0.5533E+02
     10.826  0.8548E+00  0.1870E+01  0.5575E+02  0.5543E+02
     10.882  0.8921E+00  0.1517E+01  0.5580E+02  0.5552E+02
     10.937  0.7997E+00  0.1252E+01  0.5585E+02  0.5559E+02
     10.992  0.6389E+00  0.1136E+01  0.5588E+02  0.5565E+02
     11.048  0.5482E+00  0.1134E+01  0.5591E+02  0.5571E+02
     11.103  0.5388E+00  0.1148E+01  0.5594E+02  0.5578E+02
     11.159  0.4652E+00  0.1015E+01  0.5597E+02  0.5583E+02
     11.214  0.3059E+00  0.7145E+00  0.5598E+02  0.5587E+02
     11.269  0.1620E+00  0.4398E+00  0.5599E+02  0.5590E+02
     11.325  0.7282E-01  0.3368E+00  0.5600E+02  0.5592E+02
     11.380  0.2805E-01  0.3846E+00  0.5600E+02  0.5594E+02
     11.436  0.9898E-02  0.4138E+00  0.5600E+02  0.5596E+02
     11.491  0.2996E-02  0.3308E+00  0.5600E+02  0.5598E+02
     11.547  0.6592E-03  0.2083E+00  0.5600E+02  0.5599E+02
     11.602  0.1755E-03  0.1036E+00  0.5600E+02  0.5600E+02
     11.657  0.0000E+00  0.4163E-01  0.5600E+02  0.5600E+02
     11.713  0.0000E+00  0.1486E-01  0.5600E+02  0.5600E+02
     11.768  0.0000E+00  0.4860E-02  0.5600E+02  0.5600E+02
     11.824  0.0000E+00  0.1212E-02  0.5600E+02  0.5600E+02
     11.879  0.0000E+00  0.4018E-03  0.5600E+02  0.5600E+02
     11.934  0.0000E+00  0.0000E+00  0.5600E+02  0.5600E+02
     11.990  0.0000E+00  0.0000E+00  0.5600E+02  0.5600E+02
     12.045  0.0000E+00  0.0000E+00  0.5600E+02  0.5600E+02
     12.101  0.0000E+00  0.0000E+00  0.5600E+02  0.5600E+02
     12.156  0.0000E+00  0.0000E+00  0.5600E+02  0.5600E+02
     12.212  0.0000E+00  0.0000E+00  0.5600E+02  0.5600E+02
     12.267  0.0000E+00  0.0000E+00  0.5600E+02  0.5600E+02
     12.26699436     -4.35833857  301      5.78772966      1.00000000
     -4.358  0.0000E+00  0.0000E+00  0.0000E+00  0.0000E+00  0.0000E+00  0.0000E+00  0.0000E+00  0.0000E+00  0.0000E+00  0.0000E+00  0.0000E+00  0.0000E+00  0.0000E+00  0.0000E+00  0.0000E+00  0.0000E+00  0.0000E+00  0.0000E+00
     -4.303  0.0000E+00  0.0000E+00  0.0000E+00  0.0000E+00  0.0000E+00  0.0000E+00  0.0000E+00  0.0000E+00  0.0000E+00  0.0000E+00  0.0000E+00  0.0000E+00  0.0000E+00  0.0000E+00  0.0000E+00  0.0000E+00  0.0000E+00  0.0000E+00
     -4.248  0.0000E+00  0.0000E+00  0.0000E+00  0.0000E+00  0.0000E+00  0.0000E+00  0.0000E+00  0.0000E+00  0.0000E+00  0.0000E+00  0.0000E+00  0.0000E+00  0.0000E+00  0.0000E+00  0.0000E+00  0.0000E+00  0.0000E+00  0.0000E+00
     -4.192  0.0000E+00  0.0000E+00  0.0000E+00  0.0000E+00  0.0000E+00  0.0000E+00  0.0000E+00  0.0000E+00  0.0000E+00  0.0000E+00  0.0000E+00  0.0000E+00  0.0000E+00  0.0000E+00  0.0000E+00  0.0000E+00  0.0000E+00  0.0000E+00
     -4.137  0.0000E+00  0.0000E+00  0.0000E+00  0.0000E+00  0.0000E+00  0.0000E+00  0.0000E+00  0.0000E+00  0.0000E+00  0.0000E+00  0.0000E+00  0.0000E+00  0.0000E+00  0.0000E+00  0.0000E+00  0.0000E+00  0.0000E+00  0.0000E+00
     -4.081  0.0000E+00  0.0000E+00  0.0000E+00  0.0000E+00  0.0000E+00  0.0000E+00  0.0000E+00  0.0000E+00  0.0000E+00  0.0000E+00  0.0000E+00  0.0000E+00  0.0000E+00  0.0000E+00  0.0000E+00  0.0000E+00  0.0000E+00  0.0000E+00
     -4.026  0.1113E-06  0.1157E-06  0.1160E-20  0.9728E-21  0.1227E-09  0.6492E-10  0.1160E-20  0.9728E-21  0.1386E-16  0.1618E-18  0.5814E-16  0.2119E-17  0.3547E-11  0.7769E-11  0.5814E-16  0.2119E-17  0.2252E-16  0.1425E-15
     -3.970  0.9410E-06  0.9861E-06  0.1937E-08  0.2248E-08  0.3234E-08  0.3124E-08  0.1937E-08  0.2248E-08  0.3354E-16  0.1928E-16  0.7845E-11  0.4902E-11  0.4114E-10  0.7648E-10  0.7845E-11  0.4902E-11  0.8341E-11  0.6381E-11
     -3.915  0.3668E-05  0.3862E-05  0.1221E-07  0.1428E-07  0.1812E-07  0.1877E-07  0.1221E-07  0.1428E-07  0.7573E-10  0.7222E-10  0.1275E-09  0.1043E-09  0.1665E-09  0.3068E-09  0.1275E-09  0.1043E-09  0.3451E-10  0.2638E-10
     -3.860  0.1066E-04  0.1123E-04  0.3756E-07  0.4404E-07  0.5531E-07  0.5777E-07  0.3756E-07  0.4404E-07  0.3142E-09  0.3012E-09  0.4837E-09  0.4077E-09  0.4671E-09  0.8792E-09  0.4837E-09  0.4077E-09  0.8685E-10  0.6639E-10
     -3.804  0.3194E-04  0.3457E-04  0.1150E-06  0.1551E-06  0.1671E-06  0.1804E-06  0.1150E-06  0.1551E-06  0.7903E-09  0.1027E-08  0.1300E-08  0.1261E-08  0.1611E-08  0.3086E-08  0.1300E-08  0.1261E-08  0.4412E-09  0.4997E-09
     -3.749  0.9838E-04  0.1038E-03  0.3906E-06  0.4681E-06  0.5550E-06  0.6147E-06  0.3906E-06  0.4681E-06  0.3220E-08  0.3476E-08  0.4942E-08  0.4713E-08  0.5487E-08  0.9110E-08  0.4942E-08  0.4713E-08  0.1771E-08  0.1347E-08
     -3.693  0.2870E-03  0.2965E-03  0.1179E-05  0.1353E-05  0.1667E-05  0.1727E-05  0.1179E-05  0.1353E-05  0.1082E-07  0.9784E-08  0.1613E-07  0.1299E-07  0.1600E-07  0.2604E-07  0.1613E-07  0.1299E-07  0.5142E-08  0.3868E-08
     -3.638  0.7804E-03  0.7905E-03  0.3342E-05  0.3871E-05  0.4684E-05  0.4922E-05  0.3342E-05  0.3871E-05  0.3089E-07  0.2955E-07  0.4515E-07  0.3871E-07  0.4440E-07  0.7092E-07  0.4515E-07  0.3871E-07  0.1452E-07  0.1127E-07
     -3.582  0.1866E-02  0.1804E-02  0.8982E-05  0.1007E-04  0.1241E-04  0.1270E-04  0.8982E-05  0.1007E-04  0.8958E-07  0.8434E-07  0.1313E-06  0.1088E-06  0.1136E-06  0.1693E-06  0.1313E-06  0.1088E-06  0.4105E-07  0.3086E-07
     -3.527  0.3602E-02  0.3279E-02  0.2070E-04  0.2223E-04  0.2791E-04  0.2765E-04  0.2070E-04  0.2223E-04  0.2320E-06  0.2112E-06  0.3292E-06  0.2664E-06  0.2515E-06  0.3369E-06  0.3292E-06  0.2664E-06  0.1045E-06  0.7746E-07
     -3.472  0.5451E-02  0.4700E-02  0.3982E-04  0.4121E-04  0.5198E-04  0.5033E-04  0.3982E-04  0.4121E-04  0.5229E-06  0.4594E-06  0.7150E-06  0.5641E-06  0.4888E-06  0.5776E-06  0.7150E-06  0.5641E-06  0.2460E-06  0.1804E-06
     -3.416  0.6953E-02  0.5895E-02  0.6755E-04  0.6893E-04  0.8568E-04  0.8319E-04  0.6755E-04  0.6893E-04  0.1044E-05  0.9040E-06  0.1382E-05  0.1085E-05  0.9127E-06  0.9436E-06  0.1382E-05  0.1085E-05  0.5427E-06  0.3854E-06
     -3.361  0.8643E-02  0.7324E-02  0.1082E-03  0.1079E-03  0.1362E-03  0.1312E-03  0.1082E-03  0.1079E-03  0.1989E-05  0.1697E-05  0.2564E-05  0.1998E-05  0.1592E-05  0.1458E-05  0.2564E-05  0.1998E-05  0.1027E-05  0.6822E-06
     -3.305  0.1035E-01  0.8413E-02  0.1532E-03  0.1450E-03  0.1955E-03  0.1795E-03  0.1532E-03  0.1450E-03  0.3420E-05  0.2768E-05  0.4318E-05  0.3229E-05  0.2308E-05  0.1916E-05  0.4318E-05  0.3229E-05  0.1523E-05  0.9498E-06
     -3.250  0.1064E-01  0.8341E-02  0.1833E-03  0.1704E-03  0.2368E-03  0.2117E-03  0.1833E-03  0.1704E-03  0.5007E-05  0.3969E-05  0.6207E-05  0.4560E-05  0.2913E-05  0.2332E-05  0.6207E-05  0.4560E-05  0.1960E-05  0.1250E-05
     -3.195  0.1054E-01  0.8588E-02  0.2220E-03  0.2170E-03  0.2832E-03  0.2633E-03  0.2220E-03  0.2170E-03  0.7190E-05  0.5802E-05  0.8814E-05  0.6634E-05  0.4073E-05  0.3307E-05  0.8814E-05  0.6634E-05  0.2939E-05  0.2009E-05
     -3.139  0.1200E-01  0.9982E-02  0.3042E-03  0.2972E-03  0.3690E-03  0.3462E-03  0.3042E-03  0.2972E-03  0.1055E-04  0.8285E-05  0.1296E-04  0.9495E-05  0.6372E-05  0.5025E-05  0.1296E-04  0.9495E-05  0.5097E-05  0.3402E-05
     -3.084  0.1348E-01  0.1085E-01  0.3894E-03  0.3622E-03  0.4404E-03  0.4092E-03  0.3894E-03  0.3622E-03  0.1397E-04  0.1065E-04  0.1694E-04  0.1202E-04  0.8941E-05  0.6585E-05  0.1694E-04  0.1202E-04  0.7754E-05  0.4754E-05
     -3.028  0.1357E-01  0.1075E-01  0.4347E-03  0.3947E-03  0.4826E-03  0.4590E-03  0.4347E-03  0.3947E-03  0.1774E-04  0.1381E-04  0.2085E-04  0.1523E-04  0.1061E-04  0.7279E-05  0.2085E-04  0.1523E-04  0.9243E-05  0.5246E-05
     -2.973  0.1354E-01  0.1082E-01  0.4720E-03  0.4381E-03  0.5584E-03  0.5299E-03  0.4720E-03  0.4381E-03  0.2425E-04  0.1917E-04  0.2768E-04  0.2065E-04  0.1176E-04  0.7797E-05  0.2768E-04  0.2065E-04  0.9508E-05  0.5444E-05
     -2.917  0.1408E-01  0.1120E-01  0.5412E-03  0.5052E-03  0.6376E-03  0.5898E-03  0.5412E-03  0.5052E-03  0.3314E-04  0.2503E-04  0.3630E-04  0.2638E-04  0.1317E-04  0.8742E-05  0.3630E-04  0.2638E-04  0.1062E-04  0.6415E-05
     -2.862  0.1403E-01  0.1092E-01  0.5980E-03  0.5445E-03  0.6592E-03  0.6175E-03  0.5980E-03  0.5445E-03  0.3877E-04  0.2736E-04  0.4200E-04  0.2952E-04  0.1468E-04  0.1000E-04  0.4200E-04  0.2952E-04  0.1322E-04  0.8200E-05
     -2.807  0.1347E-01  0.1072E-01  0.6355E-03  0.6003E-03  0.6916E-03  0.6822E-03  0.6355E-03  0.6003E-03  0.4027E-04  0.2946E-04  0.4623E-04  0.3296E-04  0.1809E-04  0.1312E-04  0.4623E-04  0.3296E-04  0.1784E-04  0.1148E-04
     -2.751  0.1448E-01  0.1195E-01  0.7643E-03  0.7463E-03  0.8298E-03  0.8479E-03  0.7643E-03  0.7463E-03  0.4905E-04  0.3871E-04  0.5645E-04  0.4144E-04  0.2640E-04  0.1895E-04  0.5645E-04  0.4144E-04  0.2598E-04  0.1610E-04
     -2.696  0.1643E-01  0.1317E-01  0.9361E-03  0.8739E-03  0.1033E-02  0.1028E-02  0.9361E-03  0.8739E-03  0.6680E-04  0.5124E-04  0.7053E-04  0.5170E-04  0.3705E-04  0.2386E-04  0.7053E-04  0.5170E-04  0.3334E-04  0.1882E-04
     -2.640  0.1703E-01  0.1322E-01  0.1015E-02  0.9250E-03  0.1176E-02  0.1120E-02  0.1015E-02  0.9250E-03  0.8348E-04  0.6160E-04  0.8264E-04  0.6145E-04  0.4325E-04  0.2527E-04  0.8264E-04  0.6145E-04  0.3532E-04  0.1937E-04
     -2.585  0.1696E-01  0.1316E-01  0.1070E-02  0.9789E-03  0.1263E-02  0.1207E-02  0.1070E-02  0.9789E-03  0.9796E-04  0.7099E-04  0.9979E-04  0.7492E-04  0.4456E-04  0.2564E-04  0.9979E-04  0.7492E-04  0.3681E-04  0.2038E-04
     -2.530  0.1705E-01  0.1257E-01  0.1128E-02  0.9799E-03  0.1384E-02  0.1267E-02  0.1128E-02  0.9799E-03  0.1105E-03  0.7710E-04  0.1227E-03  0.8567E-04  0.4509E-04  0.2512E-04  0.1227E-03  0.8567E-04  0.3866E-04  0.1990E-04
     -2.474  0.1553E-01  0.1093E-01  0.1070E-02  0.9190E-03  0.1386E-02  0.1195E-02  0.1070E-02  0.9190E-03  0.1146E-03  0.7982E-04  0.1319E-03  0.8741E-04  0.4303E-04  0.2351E-04  0.1319E-03  0.8741E-04  0.3580E-04  0.1858E-04
     -2.419  0.1368E-01  0.1056E-01  0.1049E-02  0.1022E-02  0.1279E-02  0.1240E-02  0.1049E-02  0.1022E-02  0.1242E-03  0.9370E-04  0.1358E-03  0.9693E-04  0.4206E-04  0.2768E-04  0.1358E-03  0.9693E-04  0.3712E-04  0.2325E-04
     -2.363  0.1448E-01  0.1217E-01  0.1283E-02  0.1320E-02  0.1390E-02  0.1577E-02  0.1283E-02  0.1320E-02  0.1588E-03  0.1206E-03  0.1598E-03  0.1201E-03  0.5489E-04  0.4077E-04  0.1598E-03  0.1201E-03  0.5276E-04  0.3484E-04
     -2.308  0.1686E-01  0.1372E-01  0.1624E-02  0.1580E-02  0.1768E-02  0.1993E-02  0.1624E-02  0.1580E-02  0.1993E-03  0.1415E-03  0.1948E-03  0.1452E-03  0.8079E-04  0.5358E-04  0.1948E-03  0.1452E-03  0.7678E-04  0.4606E-04
     -2.252  0.1825E-01  0.1367E-01  0.1820E-02  0.1648E-02  0.2196E-02  0.2195E-02  0.1820E-02  0.1648E-02  0.2175E-03  0.1498E-03  0.2284E-03  0.1649E-03  0.1012E-03  0.5621E-04  0.2284E-03  0.1649E-03  0.9442E-04  0.4995E-04
     -2.197  0.1797E-01  0.1308E-01  0.1859E-02  0.1686E-02  0.2405E-02  0.2271E-02  0.1859E-02  0.1686E-02  0.2309E-03  0.1686E-03  0.2588E-03  0.1861E-03  0.1050E-03  0.5495E-04  0.2588E-03  0.1861E-03  0.9899E-04  0.4997E-04
     -2.142  0.1752E-01  0.1268E-01  0.1938E-02  0.1739E-02  0.2473E-02  0.2446E-02  0.1938E-02  0.1739E-02  0.2691E-03  0.1913E-03  0.2931E-03  0.2086E-03  0.1053E-03  0.5607E-04  0.2931E-03  0.2086E-03  0.1006E-03  0.4978E-04
     -2.086  0.1674E-01  0.1117E-01  0.1943E-02  0.1618E-02  0.2603E-02  0.2499E-02  0.1943E-02  0.1618E-02  0.2953E-03  0.1951E-03  0.3224E-03  0.2139E-03  0.1073E-03  0.5191E-04  0.3224E-03  0.2139E-03  0.9799E-04  0.4432E-04
     -2.031  0.1470E-01  0.9884E-02  0.1789E-02  0.1582E-02  0.2613E-02  0.2546E-02  0.1789E-02  0.1582E-02  0.3085E-03  0.2182E-03  0.3346E-03  0.2342E-03  0.9960E-04  0.4783E-04  0.3346E-03  0.2342E-03  0.8494E-04  0.3969E-04
     -1.975  0.1374E-01  0.1053E-01  0.1856E-02  0.1882E-02  0.2716E-02  0.2898E-02  0.1856E-02  0.1882E-02  0.3705E-03  0.2785E-03  0.3835E-03  0.3011E-03  0.9431E-04  0.5461E-04  0.3835E-03  0.3011E-03  0.8148E-04  0.4516E-04
     -1.920  0.1471E-01  0.1143E-01  0.2185E-02  0.2268E-02  0.3212E-02  0.3268E-02  0.2185E-02  0.2268E-02  0.4591E-03  0.3280E-03  0.4835E-03  0.3659E-03  0.1065E-03  0.6654E-04  0.4835E-03  0.3659E-03  0.9596E-04  0.5702E-04
     -1.865  0.1549E-01  0.1145E-01  0.2512E-02  0.2610E-02  0.3648E-02  0.3327E-02  0.2512E-02  0.2610E-02  0.5128E-03  0.3485E-03  0.5669E-03  0.3988E-03  0.1257E-03  0.7411E-04  0.5669E-03  0.3988E-03  0.1189E-03  0.7098E-04
     -1.809  0.1553E-01  0.1066E-01  0.2862E-02  0.2839E-02  0.3751E-02  0.3021E-02  0.2862E-02  0.2839E-02  0.5344E-03  0.3532E-03  0.6249E-03  0.4093E-03  0.1369E-03  0.7312E-04  0.6249E-03  0.4093E-03  0.1501E-03  0.7931E-04
     -1.754  0.1462E-01  0.9225E-02  0.3116E-02  0.2898E-02  0.3564E-02  0.2665E-02  0.3116E-02  0.2898E-02  0.5418E-03  0.3642E-03  0.6542E-03  0.4098E-03  0.1346E-03  0.6920E-04  0.6542E-03  0.4098E-03  0.1725E-03  0.7652E-04
     -1.698  0.1273E-01  0.7982E-02  0.3172E-02  0.2965E-02  0.3158E-02  0.2558E-02  0.3172E-02  0.2965E-02  0.5683E-03  0.4074E-03  0.6507E-03  0.4291E-03  0.1290E-03  0.6836E-04  0.6507E-03  0.4291E-03  0.1692E-03  0.7048E-04
     -1.643  0.1141E-01  0.7729E-02  0.3317E-02  0.3071E-02  0.2892E-02  0.2750E-02  0.3317E-02  0.3071E-02  0.6656E-03  0.5007E-03  0.6874E-03  0.5012E-03  0.1306E-03  0.6981E-04  0.6874E-03  0.5012E-03  0.1601E-03  0.6371E-04
     -1.587  0.1149E-01  0.8325E-02  0.3576E-02  0.3153E-02  0.3122E-02  0.3121E-02  0.3576E-02  0.3153E-02  0.8505E-03  0.6240E-03  0.8339E-03  0.6152E-03  0.1369E-03  0.7270E-04  0.8339E-03  0.6152E-03  0.1506E-03  0.5649E-04