  16  16   1   0
  0.1609789E+02  0.3941238E-09  0.3941238E-09  0.1658149E-08  0.5000000E-15
  1.000000000000000E-004
  CAR 
 unknown system                          
     14.83496163     -3.90485998  301      7.26840681      1.00000000
     -3.905  0.0000E+00  0.0000E+00  0.0000E+00  0.0000E+00
     -3.842  0.0000E+00  0.0000E+00  0.0000E+00  0.0000E+00
     -3.780  0.0000E+00  0.0000E+00  0.0000E+00  0.0000E+00
     -3.717  0.0000E+00  0.0000E+00  0.0000E+00  0.0000E+00
     -3.655  0.0000E+00  0.0000E+00  0.0000E+00  0.0000E+00
     -3.593  0.0000E+00  0.0000E+00  0.0000E+00  0.0000E+00
     -3.530  0.0000E+00  0.0000E+00  0.0000E+00  0.0000E+00
     -3.468  0.7916E-05  0.6760E-05  0.4945E-06  0.4223E-06
     -3.405  0.7178E-04  0.6166E-04  0.4978E-05  0.4274E-05
     -3.343  0.3124E-03  0.2693E-03  0.2450E-04  0.2110E-04
     -3.280  0.1076E-02  0.9232E-03  0.9168E-04  0.7877E-04
     -3.218  0.3689E-02  0.3173E-02  0.3221E-03  0.2770E-03
     -3.155  0.1235E-01  0.1077E-01  0.1093E-02  0.9496E-03
     -3.093  0.3791E-01  0.3349E-01  0.3461E-02  0.3041E-02
     -3.030  0.9765E-01  0.8874E-01  0.9561E-02  0.8585E-02
     -2.968  0.1917E+00  0.1808E+00  0.2154E-01  0.1988E-01
     -2.905  0.2806E+00  0.2734E+00  0.3906E-01  0.3695E-01
     -2.843  0.3491E+00  0.3431E+00  0.6087E-01  0.5838E-01
     -2.780  0.4486E+00  0.4386E+00  0.8889E-01  0.8578E-01
     -2.718  0.5383E+00  0.5347E+00  0.1225E+00  0.1192E+00
     -2.656  0.5236E+00  0.5273E+00  0.1552E+00  0.1521E+00
     -2.593  0.5319E+00  0.5241E+00  0.1885E+00  0.1849E+00
     -2.531  0.6532E+00  0.6440E+00  0.2293E+00  0.2251E+00
     -2.468  0.7236E+00  0.7371E+00  0.2745E+00  0.2712E+00
     -2.406  0.7100E+00  0.7317E+00  0.3189E+00  0.3169E+00
     -2.343  0.7313E+00  0.7366E+00  0.3646E+00  0.3629E+00
     -2.281  0.7840E+00  0.7946E+00  0.4136E+00  0.4126E+00
     -2.218  0.7609E+00  0.7925E+00  0.4611E+00  0.4621E+00
     -2.156  0.7416E+00  0.7555E+00  0.5075E+00  0.5093E+00
     -2.093  0.8756E+00  0.8741E+00  0.5622E+00  0.5640E+00
     -2.031  0.1010E+01  0.1032E+01  0.6253E+00  0.6285E+00
     -1.968  0.1016E+01  0.1053E+01  0.6888E+00  0.6942E+00
     -1.906  0.1042E+01  0.1064E+01  0.7539E+00  0.7608E+00
     -1.843  0.1072E+01  0.1069E+01  0.8209E+00  0.8276E+00
     -1.781  0.9298E+00  0.9206E+00  0.8790E+00  0.8852E+00
     -1.719  0.8518E+00  0.8664E+00  0.9322E+00  0.9393E+00
     -1.656  0.1019E+01  0.1070E+01  0.9960E+00  0.1006E+01
     -1.594  0.1240E+01  0.1320E+01  0.1073E+01  0.1089E+01
     -1.531  0.1332E+01  0.1376E+01  0.1157E+01  0.1175E+01
     -1.469  0.1313E+01  0.1329E+01  0.1239E+01  0.1258E+01
     -1.406  0.1338E+01  0.1375E+01  0.1322E+01  0.1344E+01
     -1.344  0.1283E+01  0.1277E+01  0.1403E+01  0.1423E+01
     -1.281  0.1143E+01  0.1133E+01  0.1474E+01  0.1494E+01
     -1.219  0.1217E+01  0.1292E+01  0.1550E+01  0.1575E+01
     -1.156  0.1403E+01  0.1518E+01  0.1638E+01  0.1670E+01
     -1.094  0.1516E+01  0.1622E+01  0.1733E+01  0.1771E+01
     -1.031  0.1591E+01  0.1614E+01  0.1832E+01  0.1872E+01
     -0.969  0.1539E+01  0.1488E+01  0.1928E+01  0.1965E+01
     -0.906  0.1410E+01  0.1411E+01  0.2016E+01  0.2053E+01
     -0.844  0.1425E+01  0.1482E+01  0.2105E+01  0.2146E+01
     -0.782  0.1583E+01  0.1646E+01  0.2204E+01  0.2249E+01
     -0.719  0.1695E+01  0.1674E+01  0.2310E+01  0.2353E+01
     -0.657  0.1558E+01  0.1482E+01  0.2408E+01  0.2446E+01
     -0.594  0.1399E+01  0.1347E+01  0.2495E+01  0.2530E+01
     -0.532  0.1266E+01  0.1170E+01  0.2574E+01  0.2603E+01
     -0.469  0.1101E+01  0.1047E+01  0.2643E+01  0.2669E+01
     -0.407  0.1149E+01  0.1175E+01  0.2715E+01  0.2742E+01
     -0.344  0.1390E+01  0.1477E+01  0.2802E+01  0.2835E+01
     -0.282  0.1649E+01  0.1637E+01  0.2905E+01  0.2937E+01
     -0.219  0.1628E+01  0.1453E+01  0.3007E+01  0.3028E+01
     -0.157  0.1441E+01  0.1319E+01  0.3097E+01  0.3110E+01
     -0.094  0.1396E+01  0.1310E+01  0.3184E+01  0.3192E+01
     -0.032  0.1433E+01  0.1296E+01  0.3274E+01  0.3273E+01
      0.031  0.1606E+01  0.1428E+01  0.3374E+01  0.3362E+01
      0.093  0.1811E+01  0.1659E+01  0.3487E+01  0.3466E+01
      0.155  0.1831E+01  0.1753E+01  0.3602E+01  0.3576E+01
      0.218  0.1695E+01  0.1645E+01  0.3708E+01  0.3678E+01
      0.280  0.1540E+01  0.1565E+01  0.3804E+01  0.3776E+01
      0.343  0.1516E+01  0.1604E+01  0.3899E+01  0.3876E+01
      0.405  0.1627E+01  0.1603E+01  0.4000E+01  0.3977E+01
      0.468  0.1733E+01  0.1647E+01  0.4109E+01  0.4080E+01
      0.530  0.1773E+01  0.1676E+01  0.4220E+01  0.4184E+01
      0.593  0.1860E+01  0.1828E+01  0.4336E+01  0.4299E+01
      0.655  0.1980E+01  0.2037E+01  0.4460E+01  0.4426E+01
      0.718  0.2007E+01  0.2083E+01  0.4585E+01  0.4556E+01
      0.780  0.2099E+01  0.2063E+01  0.4716E+01  0.4685E+01
      0.843  0.2195E+01  0.2096E+01  0.4853E+01  0.4816E+01
      0.905  0.2150E+01  0.2105E+01  0.4988E+01  0.4948E+01
      0.967  0.2102E+01  0.2004E+01  0.5119E+01  0.5073E+01
      1.030  0.2010E+01  0.1904E+01  0.5245E+01  0.5192E+01
      1.092  0.1879E+01  0.1859E+01  0.5362E+01  0.5308E+01
      1.155  0.1848E+01  0.1863E+01  0.5478E+01  0.5425E+01
      1.217  0.1865E+01  0.1854E+01  0.5594E+01  0.5541E+01
      1.280  0.1859E+01  0.1850E+01  0.5710E+01  0.5656E+01
      1.342  0.1983E+01  0.1931E+01  0.5834E+01  0.5777E+01
      1.405  0.2150E+01  0.2017E+01  0.5969E+01  0.5903E+01
      1.467  0.2026E+01  0.1945E+01  0.6095E+01  0.6025E+01
      1.530  0.1794E+01  0.1771E+01  0.6208E+01  0.6135E+01
      1.592  0.1766E+01  0.1642E+01  0.6318E+01  0.6238E+01
      1.655  0.2041E+01  0.1608E+01  0.6446E+01  0.6339E+01
      1.717  0.2497E+01  0.1763E+01  0.6602E+01  0.6449E+01
      1.780  0.2739E+01  0.2242E+01  0.6773E+01  0.6589E+01
      1.842  0.2656E+01  0.2619E+01  0.6939E+01  0.6753E+01
      1.904  0.2411E+01  0.2603E+01  0.7090E+01  0.6915E+01
      1.967  0.2094E+01  0.2409E+01  0.7220E+01  0.7066E+01
      2.029  0.1970E+01  0.2130E+01  0.7343E+01  0.7199E+01
      2.092  0.2025E+01  0.1842E+01  0.7470E+01  0.7314E+01
      2.154  0.2089E+01  0.1854E+01  0.7601E+01  0.7430E+01
      2.217  0.2272E+01  0.2050E+01  0.7743E+01  0.7558E+01
      2.279  0.2544E+01  0.2270E+01  0.7902E+01  0.7700E+01
      2.342  0.2628E+01  0.2474E+01  0.8066E+01  0.7855E+01
      2.404  0.2605E+01  0.2479E+01  0.8229E+01  0.8010E+01
      2.467  0.2568E+01  0.2408E+01  0.8389E+01  0.8160E+01
      2.529  0.2543E+01  0.2360E+01  0.8548E+01  0.8308E+01
      2.592  0.2804E+01  0.2312E+01  0.8723E+01  0.8452E+01
      2.654  0.3094E+01  0.2465E+01  0.8917E+01  0.8606E+01
      2.717  0.3116E+01  0.2809E+01  0.9112E+01  0.8782E+01
      2.779  0.2967E+01  0.2862E+01  0.9297E+01  0.8961E+01
      2.841  0.2732E+01  0.2606E+01  0.9468E+01  0.9123E+01
      2.904  0.2407E+01  0.2474E+01  0.9618E+01  0.9278E+01
      2.966  0.2146E+01  0.2448E+01  0.9752E+01  0.9431E+01
      3.029  0.2221E+01  0.2259E+01  0.9891E+01  0.9572E+01
      3.091  0.2517E+01  0.2025E+01  0.1005E+02  0.9699E+01
      3.154  0.2662E+01  0.2009E+01  0.1021E+02  0.9825E+01
      3.216  0.2627E+01  0.2199E+01  0.1038E+02  0.9962E+01
      3.279  0.2655E+01  0.2362E+01  0.1055E+02  0.1011E+02
      3.341  0.2880E+01  0.2294E+01  0.1073E+02  0.1025E+02
      3.404  0.3003E+01  0.2231E+01  0.1091E+02  0.1039E+02
      3.466  0.2950E+01  0.2318E+01  0.1110E+02  0.1054E+02
      3.529  0.3022E+01  0.2579E+01  0.1129E+02  0.1070E+02
      3.591  0.3106E+01  0.2861E+01  0.1148E+02  0.1088E+02
      3.654  0.3186E+01  0.2861E+01  0.1168E+02  0.1106E+02
      3.716  0.3297E+01  0.2800E+01  0.1189E+02  0.1123E+02
      3.778  0.3359E+01  0.2891E+01  0.1210E+02  0.1141E+02
      3.841  0.3494E+01  0.2873E+01  0.1231E+02  0.1159E+02
      3.903  0.3752E+01  0.2671E+01  0.1255E+02  0.1176E+02
      3.966  0.3838E+01  0.2615E+01  0.1279E+02  0.1192E+02
      4.028  0.3919E+01  0.2799E+01  0.1303E+02  0.1210E+02
      4.091  0.4246E+01  0.3034E+01  0.1330E+02  0.1229E+02
      4.153  0.4322E+01  0.3307E+01  0.1357E+02  0.1249E+02
      4.216  0.4224E+01  0.3479E+01  0.1383E+02  0.1271E+02
      4.278  0.4278E+01  0.3208E+01  0.1410E+02  0.1291E+02
      4.341  0.4673E+01  0.2976E+01  0.1439E+02  0.1310E+02
      4.403  0.5234E+01  0.3199E+01  0.1472E+02  0.1330E+02
      4.466  0.5339E+01  0.3368E+01  0.1505E+02  0.1351E+02
      4.528  0.5141E+01  0.3325E+01  0.1537E+02  0.1372E+02
      4.591  0.5208E+01  0.3235E+01  0.1570E+02  0.1392E+02
      4.653  0.5292E+01  0.3347E+01  0.1603E+02  0.1413E+02
      4.715  0.5190E+01  0.3611E+01  0.1635E+02  0.1435E+02
      4.778  0.5200E+01  0.3561E+01  0.1668E+02  0.1458E+02
      4.840  0.5351E+01  0.3272E+01  0.1701E+02  0.1478E+02
      4.903  0.5563E+01  0.3464E+01  0.1736E+02  0.1500E+02
      4.965  0.5637E+01  0.4110E+01  0.1771E+02  0.1525E+02
      5.028  0.5654E+01  0.4426E+01  0.1807E+02  0.1553E+02
      5.090  0.6285E+01  0.4068E+01  0.1846E+02  0.1578E+02
      5.153  0.7361E+01  0.3511E+01  0.1892E+02  0.1600E+02
      5.215  0.8358E+01  0.3360E+01  0.1944E+02  0.1621E+02
      5.278  0.9244E+01  0.3499E+01  0.2002E+02  0.1643E+02
      5.340  0.9758E+01  0.3489E+01  0.2063E+02  0.1665E+02
      5.403  0.9625E+01  0.3198E+01  0.2123E+02  0.1685E+02
      5.465  0.9167E+01  0.3158E+01  0.2180E+02  0.1705E+02
      5.528  0.8588E+01  0.3553E+01  0.2234E+02  0.1727E+02
      5.590  0.8094E+01  0.3957E+01  0.2285E+02  0.1752E+02
      5.652  0.8131E+01  0.4114E+01  0.2336E+02  0.1777E+02
      5.715  0.8354E+01  0.4159E+01  0.2388E+02  0.1803E+02
      5.777  0.7841E+01  0.4238E+01  0.2437E+02  0.1830E+02
      5.840  0.6767E+01  0.4431E+01  0.2479E+02  0.1858E+02
      5.902  0.6099E+01  0.4624E+01  0.2517E+02  0.1886E+02
      5.965  0.5901E+01  0.4753E+01  0.2554E+02  0.1916E+02
      6.027  0.5716E+01  0.4859E+01  0.2590E+02  0.1947E+02
      6.090  0.5213E+01  0.4908E+01  0.2622E+02  0.1977E+02
      6.152  0.4736E+01  0.5007E+01  0.2652E+02  0.2009E+02
      6.215  0.4737E+01  0.5031E+01  0.2682E+02  0.2040E+02
      6.277  0.5452E+01  0.5149E+01  0.2716E+02  0.2072E+02
      6.340  0.6806E+01  0.5354E+01  0.2758E+02  0.2106E+02
      6.402  0.8840E+01  0.5282E+01  0.2814E+02  0.2139E+02
      6.465  0.1168E+02  0.4708E+01  0.2887E+02  0.2168E+02
      6.527  0.1367E+02  0.4323E+01  0.2972E+02  0.2195E+02
      6.589  0.1298E+02  0.4592E+01  0.3053E+02  0.2224E+02
      6.652  0.1135E+02  0.4904E+01  0.3124E+02  0.2254E+02
      6.714  0.9809E+01  0.4911E+01  0.3185E+02  0.2285E+02
      6.777  0.8086E+01  0.4904E+01  0.3236E+02  0.2316E+02
      6.839  0.6811E+01  0.4779E+01  0.3278E+02  0.2346E+02
      6.902  0.6479E+01  0.4395E+01  0.3319E+02  0.2373E+02
      6.964  0.6258E+01  0.4182E+01  0.3358E+02  0.2399E+02
      7.027  0.5514E+01  0.4524E+01  0.3393E+02  0.2428E+02
      7.089  0.4664E+01  0.4719E+01  0.3422E+02  0.2457E+02
      7.152  0.3894E+01  0.4082E+01  0.3446E+02  0.2483E+02
      7.214  0.3222E+01  0.3285E+01  0.3466E+02  0.2503E+02
      7.277  0.2688E+01  0.2919E+01  0.3483E+02  0.2521E+02
      7.339  0.2498E+01  0.3012E+01  0.3499E+02  0.2540E+02
      7.401  0.2631E+01  0.3237E+01  0.3515E+02  0.2560E+02
      7.464  0.2827E+01  0.3199E+01  0.3533E+02  0.2580E+02
      7.526  0.2899E+01  0.3178E+01  0.3551E+02  0.2600E+02
      7.589  0.2741E+01  0.3355E+01  0.3568E+02  0.2621E+02
      7.651  0.2658E+01  0.3583E+01  0.3585E+02  0.2644E+02
      7.714  0.2859E+01  0.3673E+01  0.3603E+02  0.2667E+02
      7.776  0.3100E+01  0.3944E+01  0.3622E+02  0.2691E+02
      7.839  0.3398E+01  0.4290E+01  0.3643E+02  0.2718E+02
      7.901  0.4070E+01  0.4304E+01  0.3669E+02  0.2745E+02
      7.964  0.4880E+01  0.4251E+01  0.3699E+02  0.2772E+02
      8.026  0.5630E+01  0.4167E+01  0.3734E+02  0.2798E+02
      8.089  0.6077E+01  0.4338E+01  0.3772E+02  0.2825E+02
      8.151  0.5772E+01  0.4768E+01  0.3808E+02  0.2855E+02
      8.214  0.5308E+01  0.5161E+01  0.3842E+02  0.2887E+02
      8.276  0.5344E+01  0.5359E+01  0.3875E+02  0.2920E+02
      8.338  0.5254E+01  0.5736E+01  0.3908E+02  0.2956E+02
      8.401  0.4785E+01  0.6713E+01  0.3938E+02  0.2998E+02
      8.463  0.4413E+01  0.7678E+01  0.3965E+02  0.3046E+02
      8.526  0.4267E+01  0.7917E+01  0.3992E+02  0.3096E+02
      8.588  0.4233E+01  0.8200E+01  0.4018E+02  0.3147E+02
      8.651  0.4336E+01  0.8790E+01  0.4046E+02  0.3202E+02
      8.713  0.4293E+01  0.9502E+01  0.4072E+02  0.3261E+02
      8.776  0.3897E+01  0.1048E+02  0.4097E+02  0.3327E+02
      8.838  0.3570E+01  0.1126E+02  0.4119E+02  0.3397E+02
      8.901  0.3303E+01  0.1153E+02  0.4140E+02  0.3469E+02
      8.963  0.3134E+01  0.1087E+02  0.4159E+02  0.3537E+02
      9.026  0.3250E+01  0.9154E+01  0.4180E+02  0.3594E+02
      9.088  0.3482E+01  0.8030E+01  0.4201E+02  0.3644E+02
      9.151  0.3810E+01  0.7641E+01  0.4225E+02  0.3692E+02
      9.213  0.4319E+01  0.6861E+01  0.4252E+02  0.3735E+02
      9.275  0.4654E+01  0.5801E+01  0.4281E+02  0.3771E+02
      9.338  0.4480E+01  0.5308E+01  0.4309E+02  0.3805E+02
      9.400  0.4149E+01  0.5640E+01  0.4335E+02  0.3840E+02
      9.463  0.3910E+01  0.6207E+01  0.4360E+02  0.3879E+02
      9.525  0.3988E+01  0.6617E+01  0.4385E+02  0.3920E+02
      9.588  0.4262E+01  0.7020E+01  0.4411E+02  0.3964E+02
      9.650  0.4262E+01  0.6959E+01  0.4438E+02  0.4007E+02
      9.713  0.4086E+01  0.6263E+01  0.4463E+02  0.4046E+02
      9.775  0.4047E+01  0.6101E+01  0.4489E+02  0.4085E+02
      9.838  0.4196E+01  0.6802E+01  0.4515E+02  0.4127E+02
      9.900  0.4153E+01  0.7343E+01  0.4541E+02  0.4173E+02
      9.963  0.3916E+01  0.6945E+01  0.4565E+02  0.4216E+02
     10.025  0.3861E+01  0.6256E+01  0.4589E+02  0.4256E+02
     10.088  0.3826E+01  0.5951E+01  0.4613E+02  0.4293E+02
     10.150  0.3918E+01  0.5703E+01  0.4638E+02  0.4328E+02
     10.212  0.4269E+01  0.5280E+01  0.4665E+02  0.4361E+02
     10.275  0.4308E+01  0.4861E+01  0.4691E+02  0.4392E+02
     10.337  0.4089E+01  0.4897E+01  0.4717E+02  0.4422E+02
     10.400  0.4122E+01  0.5412E+01  0.4743E+02  0.4456E+02
     10.462  0.4377E+01  0.5745E+01  0.4770E+02  0.4492E+02
     10.525  0.4486E+01  0.5784E+01  0.4798E+02  0.4528E+02
     10.587  0.4405E+01  0.5898E+01  0.4826E+02  0.4565E+02
     10.650  0.4187E+01  0.5891E+01  0.4852E+02  0.4602E+02
     10.712  0.3676E+01  0.5648E+01  0.4875E+02  0.4637E+02
     10.775  0.3045E+01  0.5308E+01  0.4894E+02  0.4670E+02
     10.837  0.2560E+01  0.5048E+01  0.4910E+02  0.4702E+02
     10.900  0.2573E+01  0.5002E+01  0.4926E+02  0.4733E+02
     10.962  0.3047E+01  0.4834E+01  0.4945E+02  0.4764E+02
     11.025  0.3459E+01  0.4413E+01  0.4967E+02  0.4791E+02
     11.087  0.3662E+01  0.4289E+01  0.4990E+02  0.4818E+02
     11.149  0.3842E+01  0.4533E+01  0.5014E+02  0.4846E+02
     11.212  0.4051E+01  0.4441E+01  0.5039E+02  0.4874E+02
     11.274  0.4100E+01  0.3909E+01  0.5065E+02  0.4898E+02
     11.337  0.3921E+01  0.3559E+01  0.5089E+02  0.4921E+02
     11.399  0.3632E+01  0.3462E+01  0.5112E+02  0.4942E+02
     11.462  0.3258E+01  0.3820E+01  0.5132E+02  0.4966E+02
     11.524  0.3043E+01  0.4441E+01  0.5151E+02  0.4994E+02
     11.587  0.3108E+01  0.4718E+01  0.5171E+02  0.5024E+02
     11.649  0.3254E+01  0.4398E+01  0.5191E+02  0.5051E+02
     11.712  0.3431E+01  0.3803E+01  0.5212E+02  0.5075E+02
     11.774  0.3388E+01  0.3366E+01  0.5234E+02  0.5096E+02
     11.837  0.3201E+01  0.3169E+01  0.5254E+02  0.5116E+02
     11.899  0.3363E+01  0.3210E+01  0.5275E+02  0.5136E+02
     11.962  0.3813E+01  0.3452E+01  0.5298E+02  0.5157E+02
     12.024  0.4134E+01  0.3673E+01  0.5324E+02  0.5180E+02
     12.086  0.3915E+01  0.3827E+01  0.5349E+02  0.5204E+02
     12.149  0.3519E+01  0.4028E+01  0.5371E+02  0.5229E+02
     12.211  0.3479E+01  0.4165E+01  0.5392E+02  0.5255E+02
     12.274  0.3786E+01  0.4221E+01  0.5416E+02  0.5282E+02
     12.336  0.3827E+01  0.3915E+01  0.5440E+02  0.5306E+02
     12.399  0.3444E+01  0.3519E+01  0.5462E+02  0.5328E+02
     12.461  0.2961E+01  0.3547E+01  0.5480E+02  0.5350E+02
     12.524  0.2545E+01  0.3694E+01  0.5496E+02  0.5373E+02
     12.586  0.2347E+01  0.3846E+01  0.5511E+02  0.5397E+02
     12.649  0.2157E+01  0.4016E+01  0.5524E+02  0.5423E+02
     12.711  0.1828E+01  0.3943E+01  0.5536E+02  0.5447E+02
     12.774  0.1491E+01  0.3471E+01  0.5545E+02  0.5469E+02
     12.836  0.1191E+01  0.2833E+01  0.5552E+02  0.5487E+02
     12.899  0.8615E+00  0.2545E+01  0.5558E+02  0.5503E+02
     12.961  0.6784E+00  0.2559E+01  0.5562E+02  0.5519E+02
     13.023  0.7442E+00  0.2360E+01  0.5567E+02  0.5533E+02
     13.086  0.8521E+00  0.1823E+01  0.5572E+02  0.5545E+02
     13.148  0.8539E+00  0.1370E+01  0.5577E+02  0.5553E+02
     13.211  0.7352E+00  0.1252E+01  0.5582E+02  0.5561E+02
     13.273  0.6043E+00  0.1236E+01  0.5586E+02  0.5569E+02
     13.336  0.5196E+00  0.1131E+01  0.5589E+02  0.5576E+02
     13.398  0.4351E+00  0.9026E+00  0.5592E+02  0.5582E+02
     13.461  0.3821E+00  0.6319E+00  0.5594E+02  0.5586E+02
     13.523  0.3515E+00  0.4517E+00  0.5596E+02  0.5588E+02
     13.586  0.2605E+00  0.3900E+00  0.5598E+02  0.5591E+02
     13.648  0.1341E+00  0.4186E+00  0.5599E+02  0.5593E+02
     13.711  0.5048E-01  0.4207E+00  0.5599E+02  0.5596E+02
     13.773  0.1868E-01  0.2968E+00  0.5599E+02  0.5598E+02
     13.836  0.1532E-01  0.1425E+00  0.5599E+02  0.5599E+02
     13.898  0.2737E-01  0.6135E-01  0.5599E+02  0.5599E+02
     13.960  0.3817E-01  0.4408E-01  0.5600E+02  0.5599E+02
     14.023  0.2820E-01  0.4220E-01  0.5600E+02  0.5600E+02
     14.085  0.1215E-01  0.2573E-01  0.5600E+02  0.5600E+02
     14.148  0.4002E-02  0.9957E-02  0.5600E+02  0.5600E+02
     14.210  0.1197E-02  0.3190E-02  0.5600E+02  0.5600E+02
     14.273  0.3474E-03  0.9457E-03  0.5600E+02  0.5600E+02
     14.335  0.0000E+00  0.2738E-03  0.5600E+02  0.5600E+02
     14.398  0.0000E+00  0.0000E+00  0.5600E+02  0.5600E+02
     14.460  0.0000E+00  0.0000E+00  0.5600E+02  0.5600E+02
     14.523  0.0000E+00  0.0000E+00  0.5600E+02  0.5600E+02
     14.585  0.0000E+00  0.0000E+00  0.5600E+02  0.5600E+02
     14.648  0.0000E+00  0.0000E+00  0.5600E+02  0.5600E+02
     14.710  0.0000E+00  0.0000E+00  0.5600E+02  0.5600E+02
     14.772  0.0000E+00  0.0000E+00  0.5600E+02  0.5600E+02
     14.835  0.0000E+00  0.0000E+00  0.5600E+02  0.5600E+02
     14.83496163     -3.90485998  301      7.26840681      1.00000000
     -3.905  0.0000E+00  0.0000E+00  0.0000E+00  0.0000E+00  0.0000E+00  0.0000E+00  0.0000E+00  0.0000E+00  0.0000E+00  0.0000E+00  0.0000E+00  0.0000E+00  0.0000E+00  0.0000E+00  0.0000E+00  0.0000E+00  0.0000E+00  0.0000E+00
     -3.842  0.0000E+00  0.0000E+00  0.0000E+00  0.0000E+00  0.0000E+00  0.0000E+00  0.0000E+00  0.0000E+00  0.0000E+00  0.0000E+00  0.0000E+00  0.0000E+00  0.0000E+00  0.0000E+00  0.0000E+00  0.0000E+00  0.0000E+00  0.0000E+00
     -3.780  0.0000E+00  0.0000E+00  0.0000E+00  0.0000E+00  0.0000E+00  0.0000E+00  0.0000E+00  0.0000E+00  0.0000E+00  0.0000E+00  0.0000E+00  0.0000E+00  0.0000E+00  0.0000E+00  0.0000E+00  0.0000E+00  0.0000E+00  0.0000E+00
     -3.717  0.0000E+00  0.0000E+00  0.0000E+00  0.0000E+00  0.0000E+00  0.0000E+00  0.0000E+00  0.0000E+00  0.0000E+00  0.0000E+00  0.0000E+00  0.0000E+00  0.0000E+00  0.0000E+00  0.0000E+00  0.0000E+00  0.0000E+00  0.0000E+00
     -3.655  0.0000E+00  0.0000E+00  0.0000E+00  0.0000E+00  0.0000E+00  0.0000E+00  0.0000E+00  0.0000E+00  0.0000E+00  0.0000E+00  0.0000E+00  0.0000E+00  0.0000E+00  0.0000E+00  0.0000E+00  0.0000E+00  0.0000E+00  0.0000E+00
     -3.593  0.0000E+00  0.0000E+00  0.0000E+00  0.0000E+00  0.0000E+00  0.0000E+00  0.0000E+00  0.0000E+00  0.0000E+00  0.0000E+00  0.0000E+00  0.0000E+00  0.0000E+00  0.0000E+00  0.0000E+00  0.0000E+00  0.0000E+00  0.0000E+00
     -3.530  0.0000E+00  0.0000E+00  0.0000E+00  0.0000E+00  0.0000E+00  0.0000E+00  0.0000E+00  0.0000E+00  0.0000E+00  0.0000E+00  0.0000E+00  0.0000E+00  0.0000E+00  0.0000E+00  0.0000E+00  0.0000E+00  0.0000E+00  0.0000E+00
     -3.468  0.1877E-06  0.1381E-06  0.6210E-20  0.7810E-19  0.2690E-09  0.7671E-10  0.6210E-20  0.7810E-19  0.1174E-15  0.9658E-18  0.4753E-16  0.4969E-17  0.7553E-11  0.1589E-10  0.4753E-16  0.4969E-17  0.3404E-14  0.4014E-14
     -3.405  0.1687E-05  0.1247E-05  0.3640E-08  0.2871E-08  0.6565E-08  0.3975E-08  0.3640E-08  0.2871E-08  0.3571E-15  0.1684E-16  0.1662E-10  0.6150E-11  0.8884E-10  0.1580E-09  0.1662E-10  0.6150E-11  0.1564E-10  0.9112E-11
     -3.343  0.7304E-05  0.5415E-05  0.2481E-07  0.1965E-07  0.3920E-07  0.2586E-07  0.2481E-07  0.1965E-07  0.1326E-09  0.9374E-10  0.2545E-09  0.1387E-09  0.3966E-09  0.6968E-09  0.2545E-09  0.1387E-09  0.7225E-10  0.4201E-10
     -3.280  0.2511E-04  0.1854E-04  0.9351E-07  0.7428E-07  0.1442E-06  0.9169E-07  0.9351E-07  0.7428E-07  0.6146E-09  0.4351E-09  0.1097E-08  0.6184E-09  0.1443E-08  0.2440E-08  0.1097E-08  0.6184E-09  0.3196E-09  0.1862E-09
     -3.218  0.8608E-04  0.6367E-04  0.3328E-06  0.2628E-06  0.5069E-06  0.3242E-06  0.3328E-06  0.2628E-06  0.2295E-08  0.1630E-08  0.3989E-08  0.2110E-08  0.5278E-08  0.8613E-08  0.3989E-08  0.2110E-08  0.1365E-08  0.7887E-09
     -3.155  0.2879E-03  0.2159E-03  0.1150E-05  0.9202E-06  0.1741E-05  0.1203E-05  0.1150E-05  0.9202E-06  0.8562E-08  0.6093E-08  0.1450E-07  0.8473E-08  0.1772E-07  0.2915E-07  0.1450E-07  0.8473E-08  0.4606E-08  0.2697E-08
     -3.093  0.8830E-03  0.6707E-03  0.3751E-05  0.3016E-05  0.5606E-05  0.3866E-05  0.3751E-05  0.3016E-05  0.2813E-07  0.2007E-07  0.4755E-07  0.2741E-07  0.5546E-07  0.9131E-07  0.4755E-07  0.2741E-07  0.1501E-07  0.8820E-08
     -3.030  0.2268E-02  0.1772E-02  0.1114E-04  0.9121E-05  0.1621E-04  0.1159E-04  0.1114E-04  0.9121E-05  0.9222E-07  0.6642E-07  0.1507E-06  0.8894E-07  0.1518E-06  0.2471E-06  0.1507E-06  0.8894E-07  0.4580E-07  0.2729E-07
     -2.968  0.4431E-02  0.3592E-02  0.2697E-04  0.2275E-04  0.3790E-04  0.2859E-04  0.2697E-04  0.2275E-04  0.2639E-06  0.1941E-06  0.4112E-06  0.2528E-06  0.3376E-06  0.5279E-06  0.4112E-06  0.2528E-06  0.1230E-06  0.7433E-07
     -2.905  0.6432E-02  0.5386E-02  0.5160E-04  0.4469E-04  0.6943E-04  0.5497E-04  0.5160E-04  0.4469E-04  0.6059E-06  0.4569E-06  0.8990E-06  0.5771E-06  0.6463E-06  0.8945E-06  0.8990E-06  0.5771E-06  0.3084E-06  0.1867E-06
     -2.843  0.7901E-02  0.6668E-02  0.8744E-04  0.7641E-04  0.1131E-03  0.9189E-04  0.8744E-04  0.7641E-04  0.1222E-05  0.9292E-06  0.1732E-05  0.1136E-05  0.1229E-05  0.1403E-05  0.1732E-05  0.1136E-05  0.7317E-06  0.4463E-06
     -2.780  0.1001E-01  0.8393E-02  0.1432E-03  0.1260E-03  0.1845E-03  0.1524E-03  0.1432E-03  0.1260E-03  0.2425E-05  0.1846E-05  0.3321E-05  0.2214E-05  0.2168E-05  0.2203E-05  0.3321E-05  0.2214E-05  0.1402E-05  0.8775E-06
     -2.718  0.1189E-01  0.1011E-01  0.1978E-03  0.1780E-03  0.2601E-03  0.2209E-03  0.1978E-03  0.1780E-03  0.4151E-05  0.3229E-05  0.5549E-05  0.3831E-05  0.2977E-05  0.2932E-05  0.5549E-05  0.3831E-05  0.1944E-05  0.1251E-05
     -2.656  0.1141E-01  0.9838E-02  0.2216E-03  0.2020E-03  0.2966E-03  0.2537E-03  0.2216E-03  0.2020E-03  0.5820E-05  0.4575E-05  0.7573E-05  0.5340E-05  0.3542E-05  0.3267E-05  0.7573E-05  0.5340E-05  0.2341E-05  0.1504E-05
     -2.593  0.1136E-01  0.9569E-02  0.2750E-03  0.2461E-03  0.3631E-03  0.3025E-03  0.2750E-03  0.2461E-03  0.8546E-05  0.6636E-05  0.1101E-04  0.7660E-05  0.5189E-05  0.4323E-05  0.1101E-04  0.7660E-05  0.3740E-05  0.2338E-05
     -2.531  0.1372E-01  0.1153E-01  0.3965E-03  0.3551E-03  0.4871E-03  0.4188E-03  0.3965E-03  0.3551E-03  0.1274E-04  0.9948E-05  0.1652E-04  0.1161E-04  0.8427E-05  0.6947E-05  0.1652E-04  0.1161E-04  0.6941E-05  0.4350E-05
     -2.468  0.1502E-01  0.1302E-01  0.4946E-03  0.4504E-03  0.5469E-03  0.5096E-03  0.4946E-03  0.4504E-03  0.1618E-04  0.1276E-04  0.2052E-04  0.1476E-04  0.1142E-04  0.9667E-05  0.2052E-04  0.1476E-04  0.1041E-04  0.6628E-05
     -2.406  0.1454E-01  0.1272E-01  0.5281E-03  0.4833E-03  0.5855E-03  0.5610E-03  0.5281E-03  0.4833E-03  0.2046E-04  0.1603E-04  0.2506E-04  0.1803E-04  0.1290E-04  0.1064E-04  0.2506E-04  0.1803E-04  0.1147E-04  0.7384E-05
     -2.343  0.1470E-01  0.1255E-01  0.5754E-03  0.5232E-03  0.7079E-03  0.6490E-03  0.5754E-03  0.5232E-03  0.2915E-04  0.2268E-04  0.3451E-04  0.2495E-04  0.1425E-04  0.1093E-04  0.3451E-04  0.2495E-04  0.1123E-04  0.7198E-05
     -2.281  0.1553E-01  0.1329E-01  0.6758E-03  0.6207E-03  0.7924E-03  0.7411E-03  0.6758E-03  0.6207E-03  0.4029E-04  0.3157E-04  0.4461E-04  0.3373E-04  0.1598E-04  0.1228E-04  0.4461E-04  0.3373E-04  0.1300E-04  0.8335E-05
     -2.218  0.1487E-01  0.1305E-01  0.7183E-03  0.6701E-03  0.7733E-03  0.7655E-03  0.7183E-03  0.6701E-03  0.4388E-04  0.3478E-04  0.4866E-04  0.3789E-04  0.1721E-04  0.1354E-04  0.4866E-04  0.3789E-04  0.1624E-04  0.1045E-04
     -2.156  0.1418E-01  0.1214E-01  0.7587E-03  0.6963E-03  0.8299E-03  0.7985E-03  0.7587E-03  0.6963E-03  0.4352E-04  0.3423E-04  0.5371E-04  0.3969E-04  0.2207E-04  0.1675E-04  0.5371E-04  0.3969E-04  0.2285E-04  0.1445E-04
     -2.093  0.1634E-01  0.1364E-01  0.9788E-03  0.8882E-03  0.1059E-02  0.1000E-02  0.9788E-03  0.8882E-03  0.5779E-04  0.4516E-04  0.6935E-04  0.5011E-04  0.3453E-04  0.2560E-04  0.6935E-04  0.5011E-04  0.3484E-04  0.2180E-04
     -2.031  0.1851E-01  0.1578E-01  0.1180E-02  0.1091E-02  0.1315E-02  0.1282E-02  0.1180E-02  0.1091E-02  0.8021E-04  0.6314E-04  0.8460E-04  0.6499E-04  0.4799E-04  0.3442E-04  0.8460E-04  0.6499E-04  0.4240E-04  0.2679E-04
     -1.968  0.1833E-01  0.1581E-01  0.1219E-02  0.1143E-02  0.1434E-02  0.1405E-02  0.1219E-02  0.1143E-02  0.9756E-04  0.7652E-04  0.9555E-04  0.7663E-04  0.5289E-04  0.3650E-04  0.9555E-04  0.7663E-04  0.4201E-04  0.2692E-04
     -1.906  0.1846E-01  0.1565E-01  0.1310E-02  0.1212E-02  0.1548E-02  0.1495E-02  0.1310E-02  0.1212E-02  0.1143E-03  0.8863E-04  0.1207E-03  0.9411E-04  0.5308E-04  0.3662E-04  0.1207E-03  0.9411E-04  0.4522E-04  0.2859E-04
     -1.843  0.1864E-01  0.1539E-01  0.1368E-02  0.1244E-02  0.1732E-02  0.1623E-02  0.1368E-02  0.1244E-02  0.1263E-03  0.9824E-04  0.1490E-03  0.1123E-03  0.5346E-04  0.3638E-04  0.1490E-03  0.1123E-03  0.4652E-04  0.2856E-04
     -1.781  0.1585E-01  0.1295E-01  0.1208E-02  0.1104E-02  0.1629E-02  0.1490E-02  0.1208E-02  0.1104E-02  0.1234E-03  0.9780E-04  0.1487E-03  0.1114E-03  0.4806E-04  0.3170E-04  0.1487E-03  0.1114E-03  0.3948E-04  0.2403E-04
     -1.719  0.1408E-01  0.1174E-01  0.1242E-02  0.1154E-02  0.1463E-02  0.1413E-02  0.1242E-02  0.1154E-02  0.1403E-03  0.1105E-03  0.1553E-03  0.1174E-03  0.4771E-04  0.3393E-04  0.1553E-03  0.1174E-03  0.4459E-04  0.2785E-04
     -1.656  0.1628E-01  0.1386E-01  0.1657E-02  0.1556E-02  0.1717E-02  0.1809E-02  0.1657E-02  0.1556E-02  0.1930E-03  0.1483E-03  0.1924E-03  0.1486E-03  0.7080E-04  0.5322E-04  0.1924E-03  0.1486E-03  0.7020E-04  0.4506E-04
     -1.594  0.1918E-01  0.1649E-01  0.2079E-02  0.1968E-02  0.2274E-02  0.2440E-02  0.2079E-02  0.1968E-02  0.2359E-03  0.1809E-03  0.2319E-03  0.1853E-03  0.1069E-03  0.7665E-04  0.2319E-03  0.1853E-03  0.1016E-03  0.6484E-04
     -1.531  0.1999E-01  0.1667E-01  0.2205E-02  0.2056E-02  0.2791E-02  0.2779E-02  0.2205E-02  0.2056E-02  0.2399E-03  0.1863E-03  0.2680E-03  0.2108E-03  0.1256E-03  0.8246E-04  0.2680E-03  0.2108E-03  0.1178E-03  0.7197E-04
     -1.469  0.1917E-01  0.1559E-01  0.2220E-02  0.2055E-02  0.2917E-02  0.2785E-02  0.2220E-02  0.2055E-02  0.2602E-03  0.2064E-03  0.3021E-03  0.2347E-03  0.1228E-03  0.7793E-04  0.3021E-03  0.2347E-03  0.1187E-03  0.7021E-04
     -1.406  0.1900E-01  0.1552E-01  0.2372E-02  0.2193E-02  0.2998E-02  0.3013E-02  0.2372E-02  0.2193E-02  0.3135E-03  0.2457E-03  0.3459E-03  0.2711E-03  0.1256E-03  0.8181E-04  0.3459E-03  0.2711E-03  0.1224E-03  0.7204E-04
     -1.344  0.1758E-01  0.1375E-01  0.2260E-02  0.2023E-02  0.3172E-02  0.3100E-02  0.2260E-02  0.2023E-02  0.3248E-03  0.2444E-03  0.3706E-03  0.2753E-03  0.1259E-03  0.7705E-04  0.3706E-03  0.2753E-03  0.1125E-03  0.6472E-04
     -1.281  0.1491E-01  0.1136E-01  0.2043E-02  0.1823E-02  0.3060E-02  0.3022E-02  0.2043E-02  0.1823E-02  0.3476E-03  0.2589E-03  0.3805E-03  0.2813E-03  0.1103E-03  0.6575E-04  0.3805E-03  0.2813E-03  0.9243E-04  0.5300E-04
     -1.219  0.1495E-01  0.1220E-01  0.2313E-02  0.2186E-02  0.3345E-02  0.3538E-02  0.2313E-02  0.2186E-02  0.4499E-03  0.3453E-03  0.4682E-03  0.3755E-03  0.1099E-03  0.7334E-04  0.4682E-03  0.3755E-03  0.9792E-04  0.5894E-04
     -1.156  0.1630E-01  0.1377E-01  0.2720E-02  0.2686E-02  0.4119E-02  0.4159E-02  0.2720E-02  0.2686E-02  0.5389E-03  0.4215E-03  0.5856E-03  0.4781E-03  0.1327E-03  0.9209E-04  0.5856E-03  0.4781E-03  0.1192E-03  0.7530E-04
     -1.094  0.1675E-01  0.1396E-01  0.3089E-02  0.3102E-02  0.4527E-02  0.4337E-02  0.3089E-02  0.3102E-02  0.5761E-03  0.4461E-03  0.6615E-03  0.5240E-03  0.1556E-03  0.1060E-03  0.6615E-03  0.5240E-03  0.1497E-03  0.9683E-04
     -1.031  0.1668E-01  0.1314E-01  0.3569E-02  0.3443E-02  0.4517E-02  0.3983E-02  0.3569E-02  0.3443E-02  0.5867E-03  0.4425E-03  0.7271E-03  0.5377E-03  0.1617E-03  0.1064E-03  0.7271E-03  0.5377E-03  0.1934E-03  0.1156E-03
     -0.969  0.1516E-01  0.1129E-01  0.3774E-02  0.3493E-02  0.4138E-02  0.3381E-02  0.3774E-02  0.3493E-02  0.5904E-03  0.4436E-03  0.7414E-03  0.5259E-03  0.1524E-03  0.9955E-04  0.7414E-03  0.5259E-03  0.2100E-03  0.1132E-03
     -0.906  0.1278E-01  0.9570E-02  0.3784E-02  0.3565E-02  0.3553E-02  0.3128E-02  0.3784E-02  0.3565E-02  0.6360E-03  0.4897E-03  0.7285E-03  0.5377E-03  0.1473E-03  0.9819E-04  0.7285E-03  0.5377E-03  0.1942E-03  0.1042E-03
     -0.844  0.1192E-01  0.9258E-02  0.4090E-02  0.3812E-02  0.3383E-02  0.3380E-02  0.4090E-02  0.3812E-02  0.8020E-03  0.6178E-03  0.8116E-03  0.6372E-03  0.1547E-03  0.1025E-03  0.8116E-03  0.6372E-03  0.1854E-03  0.9738E-04
     -0.782  0.1280E-01  0.1024E-01  0.4411E-02  0.4021E-02  0.4042E-02  0.4041E-02  0.4411E-02  0.4021E-02  0.1050E-02  0.8008E-03  0.1059E-02  0.8295E-03  0.1637E-03  0.1078E-03  0.1059E-02  0.8295E-03  0.1707E-03  0.8562E-04