  16  16   1   0
  0.1110149E+02  0.3482065E-09  0.3482065E-09  0.1464966E-08  0.5000000E-15
  1.000000000000000E-004
  CAR 
 unknown system                          
     21.19370751     -2.39815536  301     11.49655733      1.00000000
     -2.398  0.0000E+00  0.0000E+00  0.0000E+00  0.0000E+00
     -2.320  0.0000E+00  0.0000E+00  0.0000E+00  0.0000E+00
     -2.241  0.0000E+00  0.0000E+00  0.0000E+00  0.0000E+00
     -2.162  0.0000E+00  0.0000E+00  0.0000E+00  0.0000E+00
     -2.084  0.0000E+00  0.0000E+00  0.0000E+00  0.0000E+00
     -2.005  0.0000E+00  0.0000E+00  0.0000E+00  0.0000E+00
     -1.926  0.0000E+00  0.0000E+00  0.0000E+00  0.0000E+00
     -1.848  0.0000E+00  0.0000E+00  0.0000E+00  0.0000E+00
     -1.769  0.3543E-05  0.0000E+00  0.2786E-06  0.0000E+00
     -1.690  0.3628E-04  0.6888E-05  0.3132E-05  0.5417E-06
     -1.612  0.2008E-03  0.7058E-04  0.1892E-04  0.6092E-05
     -1.533  0.9478E-03  0.4045E-03  0.9345E-04  0.3790E-04
     -1.454  0.4426E-02  0.1825E-02  0.4415E-03  0.1814E-03
     -1.376  0.1895E-01  0.8374E-02  0.1931E-02  0.8399E-03
     -1.297  0.6353E-01  0.3288E-01  0.6927E-02  0.3426E-02
     -1.219  0.1465E+00  0.9527E-01  0.1845E-01  0.1092E-01
     -1.140  0.2218E+00  0.1836E+00  0.3589E-01  0.2536E-01
     -1.061  0.2546E+00  0.2381E+00  0.5591E-01  0.4408E-01
     -0.983  0.3318E+00  0.2756E+00  0.8200E-01  0.6575E-01
     -0.904  0.4470E+00  0.3867E+00  0.1172E+00  0.9616E-01
     -0.825  0.4165E+00  0.4551E+00  0.1499E+00  0.1320E+00
     -0.747  0.3591E+00  0.3719E+00  0.1782E+00  0.1612E+00
     -0.668  0.4901E+00  0.3901E+00  0.2167E+00  0.1919E+00
     -0.589  0.5911E+00  0.5513E+00  0.2632E+00  0.2353E+00
     -0.511  0.5487E+00  0.5932E+00  0.3064E+00  0.2819E+00
     -0.432  0.5400E+00  0.5450E+00  0.3489E+00  0.3248E+00
     -0.354  0.6175E+00  0.5659E+00  0.3975E+00  0.3694E+00
     -0.275  0.6235E+00  0.6456E+00  0.4465E+00  0.4202E+00
     -0.196  0.5235E+00  0.6002E+00  0.4877E+00  0.4674E+00
     -0.118  0.6073E+00  0.5295E+00  0.5355E+00  0.5091E+00
     -0.039  0.8015E+00  0.6883E+00  0.5986E+00  0.5633E+00
      0.040  0.8109E+00  0.8475E+00  0.6624E+00  0.6299E+00
      0.118  0.7740E+00  0.8071E+00  0.7233E+00  0.6934E+00
      0.197  0.8862E+00  0.8255E+00  0.7930E+00  0.7584E+00
      0.276  0.8259E+00  0.9000E+00  0.8580E+00  0.8292E+00
      0.354  0.6035E+00  0.6967E+00  0.9055E+00  0.8840E+00
      0.433  0.6761E+00  0.5891E+00  0.9587E+00  0.9304E+00
      0.512  0.9076E+00  0.7915E+00  0.1030E+01  0.9927E+00
      0.590  0.1066E+01  0.1041E+01  0.1114E+01  0.1075E+01
      0.669  0.1051E+01  0.1111E+01  0.1197E+01  0.1162E+01
      0.747  0.1040E+01  0.1023E+01  0.1279E+01  0.1243E+01
      0.826  0.1103E+01  0.1099E+01  0.1365E+01  0.1329E+01
      0.905  0.9439E+00  0.1058E+01  0.1440E+01  0.1412E+01
      0.983  0.8616E+00  0.8225E+00  0.1507E+01  0.1477E+01
      1.062  0.1052E+01  0.9590E+00  0.1590E+01  0.1553E+01
      1.141  0.1159E+01  0.1188E+01  0.1681E+01  0.1646E+01
      1.219  0.1232E+01  0.1236E+01  0.1778E+01  0.1743E+01
      1.298  0.1301E+01  0.1302E+01  0.1881E+01  0.1846E+01
      1.377  0.1176E+01  0.1222E+01  0.1973E+01  0.1942E+01
      1.455  0.1074E+01  0.1065E+01  0.2058E+01  0.2026E+01
      1.534  0.1227E+01  0.1154E+01  0.2154E+01  0.2117E+01
      1.612  0.1439E+01  0.1395E+01  0.2268E+01  0.2226E+01
      1.691  0.1369E+01  0.1458E+01  0.2375E+01  0.2341E+01
      1.770  0.1152E+01  0.1203E+01  0.2466E+01  0.2436E+01
      1.848  0.1100E+01  0.1126E+01  0.2553E+01  0.2524E+01
      1.927  0.8973E+00  0.9642E+00  0.2623E+01  0.2600E+01
      2.006  0.8645E+00  0.8097E+00  0.2691E+01  0.2664E+01
      2.084  0.1070E+01  0.9780E+00  0.2776E+01  0.2741E+01
      2.163  0.1371E+01  0.1295E+01  0.2883E+01  0.2843E+01
      2.242  0.1405E+01  0.1423E+01  0.2994E+01  0.2955E+01
      2.320  0.1199E+01  0.1182E+01  0.3088E+01  0.3048E+01
      2.399  0.1191E+01  0.1148E+01  0.3182E+01  0.3138E+01
      2.477  0.1150E+01  0.1130E+01  0.3273E+01  0.3227E+01
      2.556  0.1261E+01  0.1099E+01  0.3372E+01  0.3314E+01
      2.635  0.1565E+01  0.1317E+01  0.3495E+01  0.3417E+01
      2.713  0.1578E+01  0.1603E+01  0.3619E+01  0.3544E+01
      2.792  0.1272E+01  0.1441E+01  0.3719E+01  0.3657E+01
      2.871  0.1249E+01  0.1200E+01  0.3818E+01  0.3751E+01
      2.949  0.1219E+01  0.1319E+01  0.3914E+01  0.3855E+01
      3.028  0.1225E+01  0.1288E+01  0.4010E+01  0.3957E+01
      3.107  0.1342E+01  0.1202E+01  0.4116E+01  0.4051E+01
      3.185  0.1428E+01  0.1259E+01  0.4228E+01  0.4150E+01
      3.264  0.1475E+01  0.1376E+01  0.4344E+01  0.4259E+01
      3.343  0.1500E+01  0.1490E+01  0.4462E+01  0.4376E+01
      3.421  0.1449E+01  0.1529E+01  0.4576E+01  0.4496E+01
      3.500  0.1604E+01  0.1484E+01  0.4702E+01  0.4613E+01
      3.578  0.1894E+01  0.1670E+01  0.4851E+01  0.4744E+01
      3.657  0.1849E+01  0.1892E+01  0.4997E+01  0.4893E+01
      3.736  0.1735E+01  0.1757E+01  0.5133E+01  0.5031E+01
      3.814  0.1673E+01  0.1625E+01  0.5265E+01  0.5159E+01
      3.893  0.1611E+01  0.1637E+01  0.5392E+01  0.5288E+01
      3.972  0.1539E+01  0.1649E+01  0.5513E+01  0.5418E+01
      4.050  0.1530E+01  0.1524E+01  0.5633E+01  0.5538E+01
      4.129  0.1504E+01  0.1455E+01  0.5752E+01  0.5652E+01
      4.208  0.1755E+01  0.1528E+01  0.5890E+01  0.5773E+01
      4.286  0.1919E+01  0.1744E+01  0.6041E+01  0.5910E+01
      4.365  0.1671E+01  0.1847E+01  0.6172E+01  0.6055E+01
      4.443  0.1471E+01  0.1640E+01  0.6288E+01  0.6184E+01
      4.522  0.1585E+01  0.1389E+01  0.6413E+01  0.6294E+01
      4.601  0.1952E+01  0.1402E+01  0.6567E+01  0.6404E+01
      4.679  0.2069E+01  0.1792E+01  0.6729E+01  0.6545E+01
      4.758  0.1969E+01  0.1978E+01  0.6884E+01  0.6701E+01
      4.837  0.1961E+01  0.1928E+01  0.7039E+01  0.6852E+01
      4.915  0.1794E+01  0.2008E+01  0.7180E+01  0.7010E+01
      4.994  0.1524E+01  0.1870E+01  0.7300E+01  0.7157E+01
      5.073  0.1646E+01  0.1496E+01  0.7429E+01  0.7275E+01
      5.151  0.1774E+01  0.1534E+01  0.7569E+01  0.7396E+01
      5.230  0.1756E+01  0.1765E+01  0.7707E+01  0.7535E+01
      5.309  0.1675E+01  0.1764E+01  0.7839E+01  0.7674E+01
      5.387  0.1766E+01  0.1637E+01  0.7978E+01  0.7803E+01
      5.466  0.2080E+01  0.1655E+01  0.8142E+01  0.7933E+01
      5.544  0.2471E+01  0.1919E+01  0.8336E+01  0.8084E+01
      5.623  0.2475E+01  0.2244E+01  0.8531E+01  0.8260E+01
      5.702  0.2240E+01  0.2289E+01  0.8707E+01  0.8441E+01
      5.780  0.2326E+01  0.2170E+01  0.8890E+01  0.8611E+01
      5.859  0.2645E+01  0.2223E+01  0.9098E+01  0.8786E+01
      5.938  0.2405E+01  0.2517E+01  0.9288E+01  0.8984E+01
      6.016  0.2128E+01  0.2566E+01  0.9455E+01  0.9186E+01
      6.095  0.2268E+01  0.2259E+01  0.9634E+01  0.9364E+01
      6.174  0.2389E+01  0.2162E+01  0.9822E+01  0.9534E+01
      6.252  0.2243E+01  0.2187E+01  0.9998E+01  0.9706E+01
      6.331  0.2115E+01  0.2096E+01  0.1016E+02  0.9871E+01
      6.409  0.2329E+01  0.2056E+01  0.1035E+02  0.1003E+02
      6.488  0.2576E+01  0.2072E+01  0.1055E+02  0.1020E+02
      6.567  0.2609E+01  0.2214E+01  0.1076E+02  0.1037E+02
      6.645  0.2714E+01  0.2369E+01  0.1097E+02  0.1056E+02
      6.724  0.2709E+01  0.2313E+01  0.1118E+02  0.1074E+02
      6.803  0.2804E+01  0.2549E+01  0.1140E+02  0.1094E+02
      6.881  0.2843E+01  0.2606E+01  0.1163E+02  0.1114E+02
      6.960  0.2941E+01  0.2615E+01  0.1186E+02  0.1135E+02
      7.039  0.3122E+01  0.2709E+01  0.1210E+02  0.1156E+02
      7.117  0.3151E+01  0.2803E+01  0.1235E+02  0.1178E+02
      7.196  0.3220E+01  0.2871E+01  0.1261E+02  0.1201E+02
      7.275  0.3638E+01  0.2836E+01  0.1289E+02  0.1223E+02
      7.353  0.3890E+01  0.2874E+01  0.1320E+02  0.1246E+02
      7.432  0.3817E+01  0.3005E+01  0.1350E+02  0.1270E+02
      7.510  0.4177E+01  0.2986E+01  0.1383E+02  0.1293E+02
      7.589  0.4415E+01  0.3301E+01  0.1417E+02  0.1319E+02
      7.668  0.4021E+01  0.3663E+01  0.1449E+02  0.1348E+02
      7.746  0.3452E+01  0.3590E+01  0.1476E+02  0.1376E+02
      7.825  0.3319E+01  0.3493E+01  0.1502E+02  0.1404E+02
      7.904  0.3775E+01  0.3345E+01  0.1532E+02  0.1430E+02
      7.982  0.3880E+01  0.3300E+01  0.1563E+02  0.1456E+02
      8.061  0.3558E+01  0.3443E+01  0.1591E+02  0.1483E+02
      8.140  0.3305E+01  0.3645E+01  0.1617E+02  0.1512E+02
      8.218  0.3289E+01  0.3775E+01  0.1643E+02  0.1541E+02
      8.297  0.3510E+01  0.3778E+01  0.1670E+02  0.1571E+02
      8.375  0.3710E+01  0.3634E+01  0.1699E+02  0.1600E+02
      8.454  0.3622E+01  0.3399E+01  0.1728E+02  0.1627E+02
      8.533  0.3784E+01  0.3156E+01  0.1758E+02  0.1651E+02
      8.611  0.3940E+01  0.3321E+01  0.1789E+02  0.1678E+02
      8.690  0.3814E+01  0.3503E+01  0.1819E+02  0.1705E+02
      8.769  0.4461E+01  0.3706E+01  0.1854E+02  0.1734E+02
      8.847  0.5288E+01  0.3902E+01  0.1895E+02  0.1765E+02
      8.926  0.5588E+01  0.3463E+01  0.1939E+02  0.1792E+02
      9.005  0.5950E+01  0.3240E+01  0.1986E+02  0.1818E+02
      9.083  0.6458E+01  0.3829E+01  0.2037E+02  0.1848E+02
      9.162  0.6640E+01  0.4356E+01  0.2089E+02  0.1882E+02
      9.240  0.6422E+01  0.4591E+01  0.2140E+02  0.1918E+02
      9.319  0.5976E+01  0.4867E+01  0.2187E+02  0.1957E+02
      9.398  0.5243E+01  0.5577E+01  0.2228E+02  0.2000E+02
      9.476  0.4534E+01  0.6237E+01  0.2264E+02  0.2049E+02
      9.555  0.4398E+01  0.6080E+01  0.2298E+02  0.2097E+02
      9.634  0.4828E+01  0.5435E+01  0.2336E+02  0.2140E+02
      9.712  0.5103E+01  0.4875E+01  0.2377E+02  0.2178E+02
      9.791  0.5100E+01  0.4560E+01  0.2417E+02  0.2214E+02
      9.870  0.4567E+01  0.4219E+01  0.2453E+02  0.2248E+02
      9.948  0.3773E+01  0.4044E+01  0.2482E+02  0.2279E+02
     10.027  0.3540E+01  0.3932E+01  0.2510E+02  0.2310E+02
     10.106  0.3635E+01  0.4153E+01  0.2539E+02  0.2343E+02
     10.184  0.3568E+01  0.4493E+01  0.2567E+02  0.2378E+02
     10.263  0.3547E+01  0.4821E+01  0.2595E+02  0.2416E+02
     10.341  0.3432E+01  0.4438E+01  0.2622E+02  0.2451E+02
     10.420  0.3048E+01  0.3508E+01  0.2646E+02  0.2479E+02
     10.499  0.2638E+01  0.3020E+01  0.2667E+02  0.2503E+02
     10.577  0.2550E+01  0.2938E+01  0.2687E+02  0.2526E+02
     10.656  0.2786E+01  0.3024E+01  0.2709E+02  0.2550E+02
     10.735  0.3331E+01  0.2948E+01  0.2735E+02  0.2573E+02
     10.813  0.3940E+01  0.3020E+01  0.2766E+02  0.2597E+02
     10.892  0.3751E+01  0.3087E+01  0.2795E+02  0.2621E+02
     10.971  0.3175E+01  0.2927E+01  0.2820E+02  0.2644E+02
     11.049  0.2915E+01  0.2668E+01  0.2843E+02  0.2665E+02
     11.128  0.3980E+01  0.2355E+01  0.2875E+02  0.2683E+02
     11.206  0.6622E+01  0.2323E+01  0.2927E+02  0.2702E+02
     11.285  0.9992E+01  0.2442E+01  0.3005E+02  0.2721E+02
     11.364  0.1146E+02  0.2674E+01  0.3095E+02  0.2742E+02
     11.442  0.9856E+01  0.3057E+01  0.3173E+02  0.2766E+02
     11.521  0.7908E+01  0.3127E+01  0.3235E+02  0.2791E+02
     11.600  0.7111E+01  0.2906E+01  0.3291E+02  0.2814E+02
     11.678  0.6595E+01  0.2817E+01  0.3343E+02  0.2836E+02
     11.757  0.5459E+01  0.2948E+01  0.3386E+02  0.2859E+02
     11.836  0.4037E+01  0.2847E+01  0.3418E+02  0.2881E+02
     11.914  0.3154E+01  0.2690E+01  0.3443E+02  0.2902E+02
     11.993  0.2967E+01  0.2827E+01  0.3466E+02  0.2925E+02
     12.072  0.2823E+01  0.3625E+01  0.3488E+02  0.2953E+02
     12.150  0.2408E+01  0.4221E+01  0.3507E+02  0.2986E+02
     12.229  0.2294E+01  0.4859E+01  0.3525E+02  0.3025E+02
     12.307  0.2240E+01  0.6300E+01  0.3543E+02  0.3074E+02
     12.386  0.2064E+01  0.8016E+01  0.3559E+02  0.3137E+02
     12.465  0.1801E+01  0.8960E+01  0.3573E+02  0.3208E+02
     12.543  0.1644E+01  0.9942E+01  0.3586E+02  0.3286E+02
     12.622  0.1654E+01  0.1093E+02  0.3599E+02  0.3372E+02
     12.701  0.1824E+01  0.9687E+01  0.3614E+02  0.3448E+02
     12.779  0.2163E+01  0.7261E+01  0.3631E+02  0.3505E+02
     12.858  0.2478E+01  0.5256E+01  0.3650E+02  0.3547E+02
     12.937  0.2671E+01  0.3856E+01  0.3671E+02  0.3577E+02
     13.015  0.2691E+01  0.2776E+01  0.3693E+02  0.3599E+02
     13.094  0.2899E+01  0.2377E+01  0.3715E+02  0.3618E+02
     13.172  0.3048E+01  0.2474E+01  0.3739E+02  0.3637E+02
     13.251  0.3019E+01  0.2561E+01  0.3763E+02  0.3657E+02
     13.330  0.3138E+01  0.2895E+01  0.3788E+02  0.3680E+02
     13.408  0.3039E+01  0.3271E+01  0.3812E+02  0.3706E+02
     13.487  0.3164E+01  0.3138E+01  0.3837E+02  0.3731E+02
     13.566  0.3391E+01  0.2719E+01  0.3863E+02  0.3752E+02
     13.644  0.3529E+01  0.2723E+01  0.3891E+02  0.3774E+02
     13.723  0.3846E+01  0.3026E+01  0.3921E+02  0.3797E+02
     13.802  0.4194E+01  0.3326E+01  0.3954E+02  0.3824E+02
     13.880  0.4610E+01  0.3565E+01  0.3991E+02  0.3852E+02
     13.959  0.4424E+01  0.3601E+01  0.4025E+02  0.3880E+02
     14.038  0.3938E+01  0.3444E+01  0.4056E+02  0.3907E+02
     14.116  0.3840E+01  0.3530E+01  0.4087E+02  0.3935E+02
     14.195  0.3977E+01  0.3934E+01  0.4118E+02  0.3966E+02
     14.273  0.4087E+01  0.4172E+01  0.4150E+02  0.3999E+02
     14.352  0.3905E+01  0.3955E+01  0.4181E+02  0.4030E+02
     14.431  0.3779E+01  0.3550E+01  0.4211E+02  0.4058E+02
     14.509  0.3381E+01  0.3425E+01  0.4237E+02  0.4085E+02
     14.588  0.3104E+01  0.3810E+01  0.4262E+02  0.4115E+02
     14.667  0.2815E+01  0.4347E+01  0.4284E+02  0.4149E+02
     14.745  0.2536E+01  0.4436E+01  0.4304E+02  0.4184E+02
     14.824  0.2367E+01  0.4232E+01  0.4322E+02  0.4217E+02
     14.903  0.2387E+01  0.3962E+01  0.4341E+02  0.4248E+02
     14.981  0.2548E+01  0.3304E+01  0.4361E+02  0.4274E+02
     15.060  0.2646E+01  0.3175E+01  0.4382E+02  0.4299E+02
     15.138  0.2773E+01  0.2996E+01  0.4404E+02  0.4323E+02
     15.217  0.2658E+01  0.2693E+01  0.4425E+02  0.4344E+02
     15.296  0.2550E+01  0.2829E+01  0.4445E+02  0.4366E+02
     15.374  0.2564E+01  0.3086E+01  0.4465E+02  0.4391E+02
     15.453  0.2453E+01  0.2830E+01  0.4484E+02  0.4413E+02
     15.532  0.2547E+01  0.2377E+01  0.4504E+02  0.4432E+02
     15.610  0.2730E+01  0.2266E+01  0.4526E+02  0.4449E+02
     15.689  0.3159E+01  0.2734E+01  0.4551E+02  0.4471E+02
     15.768  0.3633E+01  0.2837E+01  0.4579E+02  0.4493E+02
     15.846  0.3802E+01  0.2853E+01  0.4609E+02  0.4516E+02
     15.925  0.4151E+01  0.2990E+01  0.4642E+02  0.4539E+02
     16.003  0.4414E+01  0.3539E+01  0.4677E+02  0.4567E+02
     16.082  0.4235E+01  0.4061E+01  0.4710E+02  0.4599E+02
     16.161  0.4296E+01  0.4076E+01  0.4744E+02  0.4631E+02
     16.239  0.4238E+01  0.4303E+01  0.4777E+02  0.4665E+02
     16.318  0.3915E+01  0.4362E+01  0.4808E+02  0.4699E+02
     16.397  0.3637E+01  0.4050E+01  0.4837E+02  0.4731E+02
     16.475  0.3208E+01  0.4076E+01  0.4862E+02  0.4763E+02
     16.554  0.2772E+01  0.4041E+01  0.4884E+02  0.4795E+02
     16.633  0.2900E+01  0.3738E+01  0.4906E+02  0.4824E+02
     16.711  0.3502E+01  0.3270E+01  0.4934E+02  0.4850E+02
     16.790  0.3979E+01  0.2993E+01  0.4965E+02  0.4874E+02
     16.869  0.3734E+01  0.3252E+01  0.4995E+02  0.4899E+02
     16.947  0.3241E+01  0.3768E+01  0.5020E+02  0.4929E+02
     17.026  0.2881E+01  0.4176E+01  0.5043E+02  0.4962E+02
     17.104  0.2788E+01  0.3742E+01  0.5065E+02  0.4991E+02
     17.183  0.2836E+01  0.3208E+01  0.5087E+02  0.5017E+02
     17.262  0.2757E+01  0.2966E+01  0.5109E+02  0.5040E+02
     17.340  0.2665E+01  0.2742E+01  0.5130E+02  0.5061E+02
     17.419  0.2704E+01  0.2514E+01  0.5151E+02  0.5081E+02
     17.498  0.2608E+01  0.2659E+01  0.5172E+02  0.5102E+02
     17.576  0.2518E+01  0.3039E+01  0.5191E+02  0.5126E+02
     17.655  0.2449E+01  0.3191E+01  0.5211E+02  0.5151E+02
     17.734  0.2208E+01  0.3158E+01  0.5228E+02  0.5176E+02
     17.812  0.2309E+01  0.2862E+01  0.5246E+02  0.5199E+02
     17.891  0.2663E+01  0.2291E+01  0.5267E+02  0.5217E+02
     17.969  0.2632E+01  0.2049E+01  0.5288E+02  0.5233E+02
     18.048  0.2614E+01  0.2156E+01  0.5309E+02  0.5250E+02
     18.127  0.2903E+01  0.2304E+01  0.5331E+02  0.5268E+02
     18.205  0.2974E+01  0.2443E+01  0.5355E+02  0.5287E+02
     18.284  0.3009E+01  0.2644E+01  0.5378E+02  0.5308E+02
     18.363  0.3334E+01  0.2899E+01  0.5405E+02  0.5331E+02
     18.441  0.3131E+01  0.2886E+01  0.5429E+02  0.5353E+02
     18.520  0.2466E+01  0.2987E+01  0.5449E+02  0.5377E+02
     18.599  0.2410E+01  0.3083E+01  0.5468E+02  0.5401E+02
     18.677  0.2643E+01  0.2828E+01  0.5489E+02  0.5423E+02
     18.756  0.2669E+01  0.2558E+01  0.5510E+02  0.5444E+02
     18.835  0.2276E+01  0.2451E+01  0.5527E+02  0.5463E+02
     18.913  0.1483E+01  0.2641E+01  0.5539E+02  0.5484E+02
     18.992  0.1138E+01  0.2670E+01  0.5548E+02  0.5505E+02
     19.070  0.1215E+01  0.2117E+01  0.5558E+02  0.5521E+02
     19.149  0.1126E+01  0.1884E+01  0.5567E+02  0.5536E+02
     19.228  0.9546E+00  0.1729E+01  0.5574E+02  0.5550E+02
     19.306  0.8894E+00  0.1475E+01  0.5581E+02  0.5561E+02
     19.385  0.7692E+00  0.1189E+01  0.5587E+02  0.5571E+02
     19.464  0.5366E+00  0.1054E+01  0.5591E+02  0.5579E+02
     19.542  0.3055E+00  0.9282E+00  0.5594E+02  0.5586E+02
     19.621  0.1573E+00  0.6424E+00  0.5595E+02  0.5591E+02
     19.700  0.9927E-01  0.3080E+00  0.5596E+02  0.5594E+02
     19.778  0.6500E-01  0.1457E+00  0.5596E+02  0.5595E+02
     19.857  0.6689E-01  0.9996E-01  0.5597E+02  0.5596E+02
     19.935  0.9892E-01  0.8909E-01  0.5598E+02  0.5597E+02
     20.014  0.1539E+00  0.1112E+00  0.5599E+02  0.5597E+02
     20.093  0.1050E+00  0.1418E+00  0.5600E+02  0.5599E+02
     20.171  0.3337E-01  0.1179E+00  0.5600E+02  0.5599E+02
     20.250  0.7655E-02  0.5154E-01  0.5600E+02  0.5600E+02
     20.329  0.1626E-02  0.1371E-01  0.5600E+02  0.5600E+02
     20.407  0.0000E+00  0.2987E-02  0.5600E+02  0.5600E+02
     20.486  0.0000E+00  0.5199E-03  0.5600E+02  0.5600E+02
     20.565  0.0000E+00  0.0000E+00  0.5600E+02  0.5600E+02
     20.643  0.0000E+00  0.0000E+00  0.5600E+02  0.5600E+02
     20.722  0.0000E+00  0.0000E+00  0.5600E+02  0.5600E+02
     20.801  0.0000E+00  0.0000E+00  0.5600E+02  0.5600E+02
     20.879  0.0000E+00  0.0000E+00  0.5600E+02  0.5600E+02
     20.958  0.0000E+00  0.0000E+00  0.5600E+02  0.5600E+02
     21.036  0.0000E+00  0.0000E+00  0.5600E+02  0.5600E+02
     21.115  0.0000E+00  0.0000E+00  0.5600E+02  0.5600E+02
     21.194  0.0000E+00  0.0000E+00  0.5600E+02  0.5600E+02
     21.19370751     -2.39815536  301     11.49655733      1.00000000
     -2.398  0.0000E+00  0.0000E+00  0.0000E+00  0.0000E+00  0.0000E+00  0.0000E+00  0.0000E+00  0.0000E+00  0.0000E+00  0.0000E+00  0.0000E+00  0.0000E+00  0.0000E+00  0.0000E+00  0.0000E+00  0.0000E+00  0.0000E+00  0.0000E+00
     -2.320  0.0000E+00  0.0000E+00  0.0000E+00  0.0000E+00  0.0000E+00  0.0000E+00  0.0000E+00  0.0000E+00  0.0000E+00  0.0000E+00  0.0000E+00  0.0000E+00  0.0000E+00  0.0000E+00  0.0000E+00  0.0000E+00  0.0000E+00  0.0000E+00
     -2.241  0.0000E+00  0.0000E+00  0.0000E+00  0.0000E+00  0.0000E+00  0.0000E+00  0.0000E+00  0.0000E+00  0.0000E+00  0.0000E+00  0.0000E+00  0.0000E+00  0.0000E+00  0.0000E+00  0.0000E+00  0.0000E+00  0.0000E+00  0.0000E+00
     -2.162  0.0000E+00  0.0000E+00  0.0000E+00  0.0000E+00  0.0000E+00  0.0000E+00  0.0000E+00  0.0000E+00  0.0000E+00  0.0000E+00  0.0000E+00  0.0000E+00  0.0000E+00  0.0000E+00  0.0000E+00  0.0000E+00  0.0000E+00  0.0000E+00
     -2.084  0.0000E+00  0.0000E+00  0.0000E+00  0.0000E+00  0.0000E+00  0.0000E+00  0.0000E+00  0.0000E+00  0.0000E+00  0.0000E+00  0.0000E+00  0.0000E+00  0.0000E+00  0.0000E+00  0.0000E+00  0.0000E+00  0.0000E+00  0.0000E+00
     -2.005  0.0000E+00  0.0000E+00  0.0000E+00  0.0000E+00  0.0000E+00  0.0000E+00  0.0000E+00  0.0000E+00  0.0000E+00  0.0000E+00  0.0000E+00  0.0000E+00  0.0000E+00  0.0000E+00  0.0000E+00  0.0000E+00  0.0000E+00  0.0000E+00
     -1.926  0.0000E+00  0.0000E+00  0.0000E+00  0.0000E+00  0.0000E+00  0.0000E+00  0.0000E+00  0.0000E+00  0.0000E+00  0.0000E+00  0.0000E+00  0.0000E+00  0.0000E+00  0.0000E+00  0.0000E+00  0.0000E+00  0.0000E+00  0.0000E+00
     -1.848  0.0000E+00  0.0000E+00  0.0000E+00  0.0000E+00  0.0000E+00  0.0000E+00  0.0000E+00  0.0000E+00  0.0000E+00  0.0000E+00  0.0000E+00  0.0000E+00  0.0000E+00  0.0000E+00  0.0000E+00  0.0000E+00  0.0000E+00  0.0000E+00
     -1.769  0.1372E-06  0.0000E+00  0.4691E-21  0.0000E+00  0.2541E-09  0.0000E+00  0.4691E-21  0.0000E+00  0.6579E-16  0.0000E+00  0.4769E-16  0.0000E+00  0.1610E-10  0.0000E+00  0.4769E-16  0.0000E+00  0.6707E-17  0.0000E+00
     -1.690  0.1393E-05  0.2563E-06  0.3090E-08  0.1053E-19  0.6121E-08  0.2332E-09  0.3090E-08  0.1053E-19  0.2512E-15  0.4840E-17  0.1459E-10  0.1997E-16  0.1853E-09  0.6852E-10  0.1459E-10  0.1997E-16  0.1539E-10  0.2988E-14
     -1.612  0.7679E-05  0.2603E-05  0.2484E-07  0.5866E-08  0.4321E-07  0.9083E-08  0.2484E-07  0.5866E-08  0.1059E-09  0.8643E-15  0.2330E-09  0.1718E-10  0.1036E-08  0.7383E-09  0.2330E-09  0.1718E-10  0.9027E-10  0.2525E-10
     -1.533  0.3624E-04  0.1484E-04  0.1203E-06  0.5259E-07  0.2081E-06  0.7524E-07  0.1203E-06  0.5259E-07  0.6238E-09  0.2858E-09  0.1265E-08  0.4645E-09  0.4856E-08  0.4239E-08  0.1265E-08  0.4645E-09  0.4025E-09  0.1483E-09
     -1.454  0.1692E-03  0.6702E-04  0.5769E-06  0.2289E-06  0.9866E-06  0.3215E-06  0.5769E-06  0.2289E-06  0.2779E-08  0.1091E-08  0.5827E-08  0.1857E-08  0.2310E-07  0.1927E-07  0.5827E-08  0.1857E-08  0.2239E-08  0.7703E-09
     -1.376  0.7231E-03  0.3072E-03  0.2734E-05  0.1111E-05  0.4535E-05  0.1581E-05  0.2734E-05  0.1111E-05  0.1438E-07  0.5689E-08  0.2891E-07  0.9410E-08  0.1007E-06  0.8881E-07  0.2891E-07  0.9410E-08  0.1106E-07  0.3907E-08
     -1.297  0.2417E-02  0.1204E-02  0.1117E-04  0.4967E-05  0.1765E-04  0.6915E-05  0.1117E-04  0.4967E-05  0.6697E-07  0.2737E-07  0.1276E-06  0.4425E-07  0.3461E-06  0.3511E-06  0.1276E-06  0.4425E-07  0.4412E-07  0.1720E-07
     -1.219  0.5541E-02  0.3472E-02  0.3348E-04  0.1814E-04  0.5027E-04  0.2469E-04  0.3348E-04  0.1814E-04  0.2549E-06  0.1176E-06  0.4466E-06  0.1817E-06  0.8302E-06  0.1030E-05  0.4466E-06  0.1817E-06  0.1310E-06  0.6135E-07
     -1.140  0.8319E-02  0.6646E-02  0.6813E-04  0.4617E-04  0.9690E-04  0.6136E-04  0.6813E-04  0.4617E-04  0.6734E-06  0.3931E-06  0.1094E-05  0.5717E-06  0.1408E-05  0.2035E-05  0.1094E-05  0.5717E-06  0.3327E-06  0.1642E-06
     -1.061  0.9417E-02  0.8528E-02  0.1115E-03  0.8228E-04  0.1486E-03  0.1050E-03  0.1115E-03  0.8228E-04  0.1304E-05  0.8760E-06  0.2018E-05  0.1219E-05  0.2281E-05  0.2912E-05  0.2018E-05  0.1219E-05  0.9429E-06  0.4327E-06
     -0.983  0.1205E-01  0.9702E-02  0.1976E-03  0.1372E-03  0.2579E-03  0.1677E-03  0.1976E-03  0.1372E-03  0.2788E-05  0.1698E-05  0.4114E-05  0.2259E-05  0.4228E-05  0.4291E-05  0.4114E-05  0.2259E-05  0.2262E-05  0.1207E-05
     -0.904  0.1605E-01  0.1339E-01  0.3065E-03  0.2421E-03  0.4121E-03  0.3030E-03  0.3065E-03  0.2421E-03  0.5567E-05  0.3764E-05  0.7983E-05  0.4897E-05  0.6092E-05  0.6891E-05  0.7983E-05  0.4897E-05  0.3350E-05  0.2397E-05
     -0.825  0.1479E-01  0.1560E-01  0.3177E-03  0.3167E-03  0.4422E-03  0.4139E-03  0.3177E-03  0.3167E-03  0.7423E-05  0.6338E-05  0.1030E-04  0.8189E-05  0.6009E-05  0.8079E-05  0.1030E-04  0.8189E-05  0.3250E-05  0.2843E-05
     -0.747  0.1246E-01  0.1256E-01  0.3344E-03  0.2980E-03  0.4773E-03  0.3960E-03  0.3344E-03  0.2980E-03  0.9945E-05  0.7727E-05  0.1345E-04  0.9631E-05  0.7297E-05  0.7308E-05  0.1345E-04  0.9631E-05  0.4295E-05  0.2774E-05
     -0.668  0.1664E-01  0.1283E-01  0.5451E-03  0.3927E-03  0.7371E-03  0.5092E-03  0.5451E-03  0.3927E-03  0.1693E-04  0.1210E-04  0.2359E-04  0.1502E-04  0.1343E-04  0.1035E-04  0.2359E-04  0.1502E-04  0.9563E-05  0.5017E-05
     -0.589  0.1986E-01  0.1785E-01  0.7514E-03  0.6351E-03  0.8607E-03  0.7718E-03  0.7514E-03  0.6351E-03  0.2183E-04  0.1893E-04  0.3028E-04  0.2431E-04  0.2042E-04  0.1842E-04  0.3028E-04  0.2431E-04  0.1749E-04  0.1089E-04
     -0.511  0.1820E-01  0.1898E-01  0.7832E-03  0.7632E-03  0.7980E-03  0.8335E-03  0.7832E-03  0.7632E-03  0.2463E-04  0.2176E-04  0.3238E-04  0.2729E-04  0.2278E-04  0.2466E-04  0.3238E-04  0.2729E-04  0.2077E-04  0.1663E-04
     -0.432  0.1755E-01  0.1715E-01  0.7857E-03  0.7493E-03  0.1004E-02  0.8688E-03  0.7857E-03  0.7493E-03  0.3437E-04  0.2644E-04  0.4540E-04  0.3200E-04  0.2306E-04  0.2425E-04  0.4540E-04  0.3200E-04  0.1770E-04  0.1626E-04
     -0.354  0.1970E-01  0.1741E-01  0.9654E-03  0.8118E-03  0.1264E-02  0.1101E-02  0.9654E-03  0.8118E-03  0.5455E-04  0.4037E-04  0.6556E-04  0.4830E-04  0.2700E-04  0.2398E-04  0.6556E-04  0.4830E-04  0.1908E-04  0.1421E-04
     -0.275  0.1968E-01  0.1953E-01  0.1102E-02  0.1041E-02  0.1175E-02  0.1251E-02  0.1102E-02  0.1041E-02  0.6743E-04  0.6059E-04  0.7323E-04  0.6697E-04  0.2842E-04  0.2877E-04  0.7323E-04  0.6697E-04  0.2382E-04  0.1792E-04
     -0.196  0.1624E-01  0.1795E-01  0.9773E-03  0.1044E-02  0.1078E-02  0.1160E-02  0.9773E-03  0.1044E-02  0.5435E-04  0.6060E-04  0.6956E-04  0.6836E-04  0.2818E-04  0.2858E-04  0.6956E-04  0.6836E-04  0.2844E-04  0.2114E-04
     -0.118  0.1829E-01  0.1543E-01  0.1241E-02  0.9832E-03  0.1399E-02  0.1168E-02  0.1241E-02  0.9832E-03  0.6285E-04  0.4977E-04  0.9127E-04  0.6706E-04  0.4520E-04  0.3236E-04  0.9127E-04  0.6706E-04  0.4933E-04  0.2898E-04
     -0.039  0.2364E-01  0.1947E-01  0.1770E-02  0.1440E-02  0.1906E-02  0.1577E-02  0.1770E-02  0.1440E-02  0.1027E-03  0.7603E-04  0.1240E-03  0.9367E-04  0.7653E-04  0.5776E-04  0.1240E-03  0.9367E-04  0.7404E-04  0.5091E-04
      0.040  0.2351E-01  0.2353E-01  0.1802E-02  0.1819E-02  0.2157E-02  0.2129E-02  0.1802E-02  0.1819E-02  0.1299E-03  0.1135E-03  0.1289E-03  0.1216E-03  0.9240E-04  0.8270E-04  0.1289E-03  0.1216E-03  0.7045E-04  0.6264E-04
      0.118  0.2202E-01  0.2202E-01  0.1798E-02  0.1748E-02  0.2167E-02  0.2235E-02  0.1798E-02  0.1748E-02  0.1503E-03  0.1326E-03  0.1491E-03  0.1310E-03  0.8827E-04  0.8263E-04  0.1491E-03  0.1310E-03  0.6796E-04  0.5558E-04
      0.197  0.2469E-01  0.2204E-01  0.2153E-02  0.1913E-02  0.2601E-02  0.2333E-02  0.2153E-02  0.1913E-02  0.1817E-03  0.1546E-03  0.2193E-03  0.1693E-03  0.9117E-04  0.8094E-04  0.2193E-03  0.1693E-03  0.8459E-04  0.6331E-04
      0.276  0.2259E-01  0.2350E-01  0.1935E-02  0.2096E-02  0.2799E-02  0.2814E-02  0.1935E-02  0.2096E-02  0.1763E-03  0.1783E-03  0.2355E-03  0.2239E-03  0.8573E-04  0.8420E-04  0.2355E-03  0.2239E-03  0.6964E-04  0.6727E-04
      0.354  0.1607E-01  0.1782E-01  0.1490E-02  0.1605E-02  0.2137E-02  0.2418E-02  0.1490E-02  0.1605E-02  0.1557E-03  0.1570E-03  0.2022E-03  0.1993E-03  0.6343E-04  0.6421E-04  0.2022E-03  0.1993E-03  0.5157E-04  0.4493E-04
      0.433  0.1740E-01  0.1459E-01  0.1994E-02  0.1554E-02  0.2103E-02  0.1928E-02  0.1994E-02  0.1554E-02  0.2262E-03  0.1703E-03  0.2520E-03  0.1964E-03  0.7879E-04  0.5710E-04  0.2520E-03  0.1964E-03  0.8187E-04  0.4718E-04
      0.512  0.2265E-01  0.1886E-01  0.2871E-02  0.2343E-02  0.2853E-02  0.2506E-02  0.2871E-02  0.2343E-02  0.3303E-03  0.2605E-03  0.3172E-03  0.2671E-03  0.1472E-03  0.1031E-03  0.3172E-03  0.2671E-03  0.1412E-03  0.8860E-04
      0.590  0.2570E-01  0.2391E-01  0.3337E-02  0.3157E-02  0.3926E-02  0.3645E-02  0.3337E-02  0.3157E-02  0.3505E-03  0.3345E-03  0.3680E-03  0.3340E-03  0.2104E-03  0.1728E-03  0.3680E-03  0.3340E-03  0.1945E-03  0.1435E-03
      0.669  0.2450E-01  0.2466E-01  0.3162E-02  0.3261E-02  0.4566E-02  0.4574E-02  0.3162E-02  0.3261E-02  0.3137E-03  0.3122E-03  0.4181E-03  0.3821E-03  0.2087E-03  0.1940E-03  0.4181E-03  0.3821E-03  0.1967E-03  0.1665E-03
      0.747  0.2363E-01  0.2205E-01  0.3367E-02  0.3082E-02  0.4333E-02  0.4396E-02  0.3367E-02  0.3082E-02  0.4034E-03  0.3296E-03  0.4718E-03  0.4137E-03  0.1967E-03  0.1696E-03  0.4718E-03  0.4137E-03  0.1964E-03  0.1524E-03
      0.826  0.2428E-01  0.2295E-01  0.3673E-02  0.3542E-02  0.4783E-02  0.4612E-02  0.3673E-02  0.3542E-02  0.4732E-03  0.4443E-03  0.5567E-03  0.5000E-03  0.2180E-03  0.1857E-03  0.5567E-03  0.5000E-03  0.2094E-03  0.1641E-03
      0.905  0.1986E-01  0.2119E-01  0.2980E-02  0.3314E-02  0.4805E-02  0.5043E-02  0.2980E-02  0.3314E-02  0.4274E-03  0.4270E-03  0.5401E-03  0.5256E-03  0.1948E-03  0.1878E-03  0.5401E-03  0.5256E-03  0.1589E-03  0.1544E-03
      0.983  0.1720E-01  0.1554E-01  0.2950E-02  0.2581E-02  0.4277E-02  0.4290E-02  0.2950E-02  0.2581E-02  0.5433E-03  0.4113E-03  0.5887E-03  0.4709E-03  0.1595E-03  0.1408E-03  0.5887E-03  0.4709E-03  0.1353E-03  0.1068E-03
      1.062  0.1968E-01  0.1683E-01  0.3718E-02  0.3206E-02  0.5525E-02  0.5105E-02  0.3718E-02  0.3206E-02  0.7321E-03  0.6042E-03  0.8058E-03  0.6598E-03  0.1874E-03  0.1479E-03  0.8058E-03  0.6598E-03  0.1706E-03  0.1187E-03
      1.141  0.2036E-01  0.1980E-01  0.3986E-02  0.3931E-02  0.6933E-02  0.6840E-02  0.3986E-02  0.3931E-02  0.7962E-03  0.7536E-03  0.9225E-03  0.8890E-03  0.2338E-03  0.1925E-03  0.9225E-03  0.8890E-03  0.1907E-03  0.1483E-03
      1.219  0.2058E-01  0.1970E-01  0.4639E-02  0.4290E-02  0.7107E-02  0.7191E-02  0.4639E-02  0.4290E-02  0.8174E-03  0.7878E-03  0.1020E-02  0.9501E-03  0.2598E-03  0.2259E-03  0.1020E-02  0.9501E-03  0.2562E-03  0.1792E-03
      1.298  0.2065E-01  0.1963E-01  0.5531E-02  0.5133E-02  0.6825E-02  0.6976E-02  0.5531E-02  0.5133E-02  0.8027E-03  0.7693E-03  0.1125E-02  0.1031E-02  0.2548E-03  0.2352E-03  0.1125E-02  0.1031E-02  0.3527E-03  0.2546E-03
      1.377  0.1733E-01  0.1733E-01  0.5406E-02  0.5374E-02  0.5904E-02  0.5952E-02  0.5406E-02  0.5374E-02  0.7976E-03  0.7396E-03  0.1077E-02  0.1008E-02  0.2356E-03  0.2243E-03  0.1077E-02  0.1008E-02  0.3370E-03  0.2776E-03
      1.455  0.1423E-01  0.1366E-01  0.5514E-02  0.5115E-02  0.4837E-02  0.4871E-02  0.5514E-02  0.5115E-02  0.9202E-03  0.7715E-03  0.1070E-02  0.9473E-03  0.2369E-03  0.2112E-03  0.1070E-02  0.9473E-03  0.2992E-03  0.2358E-03
      1.534  0.1527E-01  0.1332E-01  0.6478E-02  0.5905E-02  0.5329E-02  0.5028E-02  0.6478E-02  0.5905E-02  0.1356E-02  0.1053E-02  0.1377E-02  0.1133E-02  0.2713E-03  0.2339E-03  0.1377E-02  0.1133E-02  0.3049E-03  0.2401E-03