  16  16   1   0
  0.1657133E+02  0.3979503E-09  0.3979503E-09  0.1674247E-08  0.5000000E-15
  1.000000000000000E-004
  CAR 
 unknown system                          
     14.37643328     -3.98653385  301      7.00057338      1.00000000
     -3.987  0.0000E+00  0.0000E+00  0.0000E+00  0.0000E+00
     -3.925  0.0000E+00  0.0000E+00  0.0000E+00  0.0000E+00
     -3.864  0.0000E+00  0.0000E+00  0.0000E+00  0.0000E+00
     -3.803  0.0000E+00  0.0000E+00  0.0000E+00  0.0000E+00
     -3.742  0.0000E+00  0.0000E+00  0.0000E+00  0.0000E+00
     -3.680  0.0000E+00  0.0000E+00  0.0000E+00  0.0000E+00
     -3.619  0.0000E+00  0.0000E+00  0.0000E+00  0.0000E+00
     -3.558  0.9544E-05  0.9449E-05  0.5842E-06  0.5784E-06
     -3.497  0.1260E-03  0.1260E-03  0.8296E-05  0.8290E-05
     -3.436  0.3546E-03  0.3549E-03  0.3000E-04  0.3001E-04
     -3.374  0.1196E-02  0.1197E-02  0.1032E-03  0.1033E-03
     -3.313  0.4099E-02  0.4105E-02  0.3541E-03  0.3546E-03
     -3.252  0.1336E-01  0.1339E-01  0.1172E-02  0.1174E-02
     -3.191  0.3997E-01  0.4010E-01  0.3619E-02  0.3629E-02
     -3.130  0.1008E+00  0.1013E+00  0.9792E-02  0.9832E-02
     -3.068  0.1956E+00  0.1968E+00  0.2176E-01  0.2188E-01
     -3.007  0.2856E+00  0.2878E+00  0.3925E-01  0.3950E-01
     -2.946  0.3567E+00  0.3602E+00  0.6108E-01  0.6154E-01
     -2.885  0.4569E+00  0.4614E+00  0.8905E-01  0.8978E-01
     -2.824  0.5457E+00  0.5479E+00  0.1224E+00  0.1233E+00
     -2.762  0.5345E+00  0.5338E+00  0.1552E+00  0.1560E+00
     -2.701  0.5452E+00  0.5477E+00  0.1885E+00  0.1895E+00
     -2.640  0.6643E+00  0.6729E+00  0.2292E+00  0.2307E+00
     -2.579  0.7360E+00  0.7529E+00  0.2743E+00  0.2768E+00
     -2.517  0.7257E+00  0.7450E+00  0.3187E+00  0.3224E+00
     -2.456  0.7465E+00  0.7585E+00  0.3645E+00  0.3689E+00
     -2.395  0.7977E+00  0.8145E+00  0.4133E+00  0.4188E+00
     -2.334  0.7778E+00  0.8022E+00  0.4609E+00  0.4679E+00
     -2.273  0.7607E+00  0.7809E+00  0.5075E+00  0.5157E+00
     -2.211  0.8908E+00  0.9158E+00  0.5621E+00  0.5718E+00
     -2.150  0.1026E+01  0.1059E+01  0.6249E+00  0.6367E+00
     -2.089  0.1038E+01  0.1072E+01  0.6884E+00  0.7023E+00
     -2.028  0.1062E+01  0.1090E+01  0.7535E+00  0.7691E+00
     -1.967  0.1088E+01  0.1076E+01  0.8201E+00  0.8350E+00
     -1.905  0.9512E+00  0.9243E+00  0.8784E+00  0.8916E+00
     -1.844  0.8743E+00  0.9055E+00  0.9319E+00  0.9470E+00
     -1.783  0.1038E+01  0.1127E+01  0.9955E+00  0.1016E+01
     -1.722  0.1259E+01  0.1362E+01  0.1073E+01  0.1099E+01
     -1.661  0.1355E+01  0.1394E+01  0.1156E+01  0.1185E+01
     -1.599  0.1340E+01  0.1359E+01  0.1238E+01  0.1268E+01
     -1.538  0.1361E+01  0.1399E+01  0.1321E+01  0.1354E+01
     -1.477  0.1308E+01  0.1279E+01  0.1401E+01  0.1432E+01
     -1.416  0.1170E+01  0.1166E+01  0.1473E+01  0.1503E+01
     -1.355  0.1238E+01  0.1351E+01  0.1548E+01  0.1586E+01
     -1.293  0.1427E+01  0.1565E+01  0.1636E+01  0.1682E+01
     -1.232  0.1544E+01  0.1659E+01  0.1730E+01  0.1784E+01
     -1.171  0.1618E+01  0.1633E+01  0.1829E+01  0.1884E+01
     -1.110  0.1567E+01  0.1504E+01  0.1925E+01  0.1976E+01
     -1.048  0.1440E+01  0.1445E+01  0.2014E+01  0.2064E+01
     -0.987  0.1449E+01  0.1526E+01  0.2102E+01  0.2158E+01
     -0.926  0.1602E+01  0.1683E+01  0.2201E+01  0.2261E+01
     -0.865  0.1719E+01  0.1682E+01  0.2306E+01  0.2364E+01
     -0.804  0.1594E+01  0.1490E+01  0.2403E+01  0.2455E+01
     -0.742  0.1430E+01  0.1356E+01  0.2491E+01  0.2538E+01
     -0.681  0.1297E+01  0.1173E+01  0.2570E+01  0.2610E+01
     -0.620  0.1130E+01  0.1072E+01  0.2640E+01  0.2676E+01
     -0.559  0.1166E+01  0.1220E+01  0.2711E+01  0.2751E+01
     -0.498  0.1400E+01  0.1521E+01  0.2797E+01  0.2844E+01
     -0.436  0.1662E+01  0.1649E+01  0.2899E+01  0.2945E+01
     -0.375  0.1661E+01  0.1458E+01  0.3000E+01  0.3034E+01
     -0.314  0.1475E+01  0.1338E+01  0.3091E+01  0.3116E+01
     -0.253  0.1418E+01  0.1326E+01  0.3178E+01  0.3197E+01
     -0.192  0.1452E+01  0.1319E+01  0.3266E+01  0.3278E+01
     -0.130  0.1617E+01  0.1460E+01  0.3365E+01  0.3367E+01
     -0.069  0.1825E+01  0.1685E+01  0.3477E+01  0.3470E+01
     -0.008  0.1862E+01  0.1767E+01  0.3591E+01  0.3579E+01
      0.053  0.1741E+01  0.1664E+01  0.3698E+01  0.3681E+01
      0.115  0.1584E+01  0.1600E+01  0.3795E+01  0.3779E+01
      0.176  0.1544E+01  0.1636E+01  0.3889E+01  0.3879E+01
      0.237  0.1649E+01  0.1636E+01  0.3991E+01  0.3979E+01
      0.298  0.1762E+01  0.1685E+01  0.4098E+01  0.4082E+01
      0.359  0.1807E+01  0.1722E+01  0.4209E+01  0.4188E+01
      0.421  0.1882E+01  0.1874E+01  0.4324E+01  0.4302E+01
      0.482  0.2006E+01  0.2074E+01  0.4447E+01  0.4429E+01
      0.543  0.2047E+01  0.2126E+01  0.4573E+01  0.4560E+01
      0.604  0.2133E+01  0.2110E+01  0.4703E+01  0.4689E+01
      0.665  0.2232E+01  0.2134E+01  0.4840E+01  0.4820E+01
      0.727  0.2189E+01  0.2134E+01  0.4974E+01  0.4950E+01
      0.788  0.2134E+01  0.2031E+01  0.5105E+01  0.5075E+01
      0.849  0.2052E+01  0.1928E+01  0.5230E+01  0.5193E+01
      0.910  0.1923E+01  0.1888E+01  0.5348E+01  0.5308E+01
      0.971  0.1881E+01  0.1897E+01  0.5463E+01  0.5425E+01
      1.033  0.1899E+01  0.1891E+01  0.5580E+01  0.5540E+01
      1.094  0.1894E+01  0.1892E+01  0.5696E+01  0.5656E+01
      1.155  0.1994E+01  0.1971E+01  0.5818E+01  0.5777E+01
      1.216  0.2163E+01  0.2048E+01  0.5950E+01  0.5903E+01
      1.278  0.2083E+01  0.1969E+01  0.6078E+01  0.6023E+01
      1.339  0.1850E+01  0.1792E+01  0.6191E+01  0.6133E+01
      1.400  0.1783E+01  0.1671E+01  0.6300E+01  0.6235E+01
      1.461  0.2012E+01  0.1640E+01  0.6424E+01  0.6336E+01
      1.522  0.2460E+01  0.1768E+01  0.6574E+01  0.6444E+01
      1.584  0.2772E+01  0.2230E+01  0.6744E+01  0.6581E+01
      1.645  0.2735E+01  0.2631E+01  0.6912E+01  0.6742E+01
      1.706  0.2506E+01  0.2646E+01  0.7065E+01  0.6904E+01
      1.767  0.2177E+01  0.2463E+01  0.7198E+01  0.7055E+01
      1.828  0.2013E+01  0.2191E+01  0.7322E+01  0.7189E+01
      1.890  0.2060E+01  0.1901E+01  0.7448E+01  0.7305E+01
      1.951  0.2134E+01  0.1898E+01  0.7579E+01  0.7421E+01
      2.012  0.2289E+01  0.2098E+01  0.7719E+01  0.7550E+01
      2.073  0.2565E+01  0.2311E+01  0.7876E+01  0.7692E+01
      2.134  0.2685E+01  0.2509E+01  0.8040E+01  0.7845E+01
      2.196  0.2651E+01  0.2530E+01  0.8203E+01  0.8000E+01
      2.257  0.2597E+01  0.2459E+01  0.8362E+01  0.8151E+01
      2.318  0.2573E+01  0.2405E+01  0.8519E+01  0.8298E+01
      2.379  0.2807E+01  0.2354E+01  0.8691E+01  0.8442E+01
      2.441  0.3108E+01  0.2480E+01  0.8882E+01  0.8594E+01
      2.502  0.3164E+01  0.2823E+01  0.9075E+01  0.8767E+01
      2.563  0.3049E+01  0.2919E+01  0.9262E+01  0.8946E+01
      2.624  0.2814E+01  0.2670E+01  0.9435E+01  0.9109E+01
      2.685  0.2496E+01  0.2491E+01  0.9588E+01  0.9262E+01
      2.747  0.2214E+01  0.2419E+01  0.9723E+01  0.9410E+01
      2.808  0.2174E+01  0.2262E+01  0.9856E+01  0.9549E+01
      2.869  0.2444E+01  0.2061E+01  0.1001E+02  0.9675E+01
      2.930  0.2637E+01  0.2016E+01  0.1017E+02  0.9798E+01
      2.991  0.2616E+01  0.2183E+01  0.1033E+02  0.9932E+01
      3.053  0.2636E+01  0.2354E+01  0.1049E+02  0.1008E+02
      3.114  0.2824E+01  0.2274E+01  0.1066E+02  0.1022E+02
      3.175  0.3045E+01  0.2185E+01  0.1085E+02  0.1035E+02
      3.236  0.3023E+01  0.2287E+01  0.1103E+02  0.1049E+02
      3.297  0.3021E+01  0.2516E+01  0.1122E+02  0.1064E+02
      3.359  0.3059E+01  0.2817E+01  0.1141E+02  0.1082E+02
      3.420  0.3137E+01  0.2918E+01  0.1160E+02  0.1099E+02
      3.481  0.3299E+01  0.2845E+01  0.1180E+02  0.1117E+02
      3.542  0.3391E+01  0.2851E+01  0.1201E+02  0.1134E+02
      3.603  0.3472E+01  0.2901E+01  0.1222E+02  0.1152E+02
      3.665  0.3694E+01  0.2749E+01  0.1245E+02  0.1169E+02
      3.726  0.3878E+01  0.2616E+01  0.1268E+02  0.1185E+02
      3.787  0.3876E+01  0.2705E+01  0.1292E+02  0.1202E+02
      3.848  0.4116E+01  0.2939E+01  0.1317E+02  0.1220E+02
      3.910  0.4363E+01  0.3196E+01  0.1344E+02  0.1239E+02
      3.971  0.4276E+01  0.3504E+01  0.1370E+02  0.1261E+02
      4.032  0.4244E+01  0.3440E+01  0.1396E+02  0.1282E+02
      4.093  0.4488E+01  0.3063E+01  0.1424E+02  0.1300E+02
      4.154  0.5075E+01  0.3071E+01  0.1455E+02  0.1319E+02
      4.216  0.5511E+01  0.3300E+01  0.1489E+02  0.1339E+02
      4.277  0.5399E+01  0.3365E+01  0.1522E+02  0.1360E+02
      4.338  0.5286E+01  0.3286E+01  0.1554E+02  0.1380E+02
      4.399  0.5413E+01  0.3282E+01  0.1587E+02  0.1400E+02
      4.460  0.5426E+01  0.3525E+01  0.1620E+02  0.1422E+02
      4.522  0.5389E+01  0.3685E+01  0.1653E+02  0.1444E+02
      4.583  0.5514E+01  0.3442E+01  0.1687E+02  0.1466E+02
      4.644  0.5716E+01  0.3241E+01  0.1722E+02  0.1485E+02
      4.705  0.5863E+01  0.3662E+01  0.1758E+02  0.1508E+02
      4.766  0.5837E+01  0.4317E+01  0.1794E+02  0.1534E+02
      4.828  0.6233E+01  0.4436E+01  0.1832E+02  0.1561E+02
      4.889  0.7249E+01  0.3895E+01  0.1876E+02  0.1585E+02
      4.950  0.8355E+01  0.3411E+01  0.1928E+02  0.1606E+02
      5.011  0.9323E+01  0.3433E+01  0.1985E+02  0.1627E+02
      5.073  0.1000E+02  0.3601E+01  0.2046E+02  0.1649E+02
      5.134  0.1005E+02  0.3465E+01  0.2107E+02  0.1670E+02
      5.195  0.9667E+01  0.3154E+01  0.2167E+02  0.1690E+02
      5.256  0.9151E+01  0.3221E+01  0.2223E+02  0.1710E+02
      5.317  0.8635E+01  0.3698E+01  0.2276E+02  0.1732E+02
      5.379  0.8541E+01  0.4096E+01  0.2328E+02  0.1757E+02
      5.440  0.8736E+01  0.4180E+01  0.2381E+02  0.1783E+02
      5.501  0.8290E+01  0.4186E+01  0.2432E+02  0.1808E+02
      5.562  0.7189E+01  0.4281E+01  0.2476E+02  0.1835E+02
      5.623  0.6431E+01  0.4472E+01  0.2516E+02  0.1862E+02
      5.685  0.6173E+01  0.4576E+01  0.2553E+02  0.1890E+02
      5.746  0.5948E+01  0.4682E+01  0.2590E+02  0.1919E+02
      5.807  0.5410E+01  0.4816E+01  0.2623E+02  0.1948E+02
      5.868  0.4932E+01  0.4904E+01  0.2653E+02  0.1978E+02
      5.929  0.5051E+01  0.5036E+01  0.2684E+02  0.2009E+02
      5.991  0.6004E+01  0.5061E+01  0.2721E+02  0.2040E+02
      6.052  0.7700E+01  0.5166E+01  0.2768E+02  0.2072E+02
      6.113  0.1015E+02  0.5304E+01  0.2830E+02  0.2104E+02
      6.174  0.1291E+02  0.5237E+01  0.2909E+02  0.2136E+02
      6.236  0.1381E+02  0.4742E+01  0.2994E+02  0.2165E+02
      6.297  0.1251E+02  0.4336E+01  0.3071E+02  0.2192E+02
      6.358  0.1100E+02  0.4570E+01  0.3138E+02  0.2220E+02
      6.419  0.9494E+01  0.4978E+01  0.3196E+02  0.2250E+02
      6.480  0.7847E+01  0.5005E+01  0.3244E+02  0.2281E+02
      6.542  0.6770E+01  0.4929E+01  0.3286E+02  0.2311E+02
      6.603  0.6493E+01  0.4821E+01  0.3325E+02  0.2341E+02
      6.664  0.6186E+01  0.4482E+01  0.3363E+02  0.2368E+02
      6.725  0.5432E+01  0.4209E+01  0.3397E+02  0.2394E+02
      6.786  0.4635E+01  0.4404E+01  0.3425E+02  0.2421E+02
      6.848  0.3888E+01  0.4707E+01  0.3449E+02  0.2450E+02
      6.909  0.3191E+01  0.4332E+01  0.3468E+02  0.2476E+02
      6.970  0.2671E+01  0.3536E+01  0.3485E+02  0.2498E+02
      7.031  0.2539E+01  0.3040E+01  0.3500E+02  0.2517E+02
      7.092  0.2713E+01  0.3017E+01  0.3517E+02  0.2535E+02
      7.154  0.2933E+01  0.3213E+01  0.3535E+02  0.2555E+02
      7.215  0.3019E+01  0.3226E+01  0.3553E+02  0.2575E+02
      7.276  0.2920E+01  0.3203E+01  0.3571E+02  0.2594E+02
      7.337  0.2915E+01  0.3343E+01  0.3589E+02  0.2615E+02
      7.399  0.3132E+01  0.3580E+01  0.3608E+02  0.2637E+02
      7.460  0.3490E+01  0.3719E+01  0.3630E+02  0.2659E+02
      7.521  0.4026E+01  0.3938E+01  0.3654E+02  0.2684E+02
      7.582  0.4695E+01  0.4337E+01  0.3683E+02  0.2710E+02
      7.643  0.5450E+01  0.4442E+01  0.3716E+02  0.2737E+02
      7.705  0.6134E+01  0.4367E+01  0.3754E+02  0.2764E+02
      7.766  0.6099E+01  0.4303E+01  0.3791E+02  0.2790E+02
      7.827  0.5539E+01  0.4411E+01  0.3825E+02  0.2817E+02
      7.888  0.5271E+01  0.4848E+01  0.3858E+02  0.2847E+02
      7.949  0.5194E+01  0.5337E+01  0.3889E+02  0.2880E+02
      8.011  0.4846E+01  0.5640E+01  0.3919E+02  0.2914E+02
      8.072  0.4441E+01  0.5941E+01  0.3946E+02  0.2951E+02
      8.133  0.4275E+01  0.6817E+01  0.3972E+02  0.2992E+02
      8.194  0.4251E+01  0.7747E+01  0.3999E+02  0.3040E+02
      8.255  0.4379E+01  0.7952E+01  0.4025E+02  0.3089E+02
      8.317  0.4457E+01  0.8163E+01  0.4053E+02  0.3139E+02
      8.378  0.4175E+01  0.8762E+01  0.4078E+02  0.3192E+02
      8.439  0.3770E+01  0.9474E+01  0.4101E+02  0.3250E+02
      8.500  0.3588E+01  0.1036E+02  0.4123E+02  0.3314E+02
      8.561  0.3297E+01  0.1117E+02  0.4143E+02  0.3382E+02
      8.623  0.3117E+01  0.1152E+02  0.4163E+02  0.3453E+02
      8.684  0.3248E+01  0.1127E+02  0.4182E+02  0.3522E+02
      8.745  0.3578E+01  0.9974E+01  0.4204E+02  0.3583E+02
      8.806  0.4128E+01  0.8774E+01  0.4230E+02  0.3636E+02
      8.868  0.4741E+01  0.8341E+01  0.4259E+02  0.3688E+02
      8.929  0.4860E+01  0.7682E+01  0.4289E+02  0.3735E+02
      8.990  0.4413E+01  0.6564E+01  0.4316E+02  0.3775E+02
      9.051  0.4090E+01  0.6036E+01  0.4341E+02  0.3812E+02
      9.112  0.4063E+01  0.6326E+01  0.4365E+02  0.3851E+02
      9.174  0.4231E+01  0.6761E+01  0.4391E+02  0.3892E+02
      9.235  0.4418E+01  0.7107E+01  0.4418E+02  0.3936E+02
      9.296  0.4391E+01  0.7343E+01  0.4445E+02  0.3981E+02
      9.357  0.4274E+01  0.6934E+01  0.4471E+02  0.4023E+02
      9.418  0.4301E+01  0.6307E+01  0.4498E+02  0.4062E+02
      9.480  0.4313E+01  0.6587E+01  0.4524E+02  0.4102E+02
      9.541  0.4114E+01  0.7331E+01  0.4549E+02  0.4147E+02
      9.602  0.3831E+01  0.7464E+01  0.4573E+02  0.4193E+02
      9.663  0.3621E+01  0.6865E+01  0.4595E+02  0.4235E+02
      9.724  0.3561E+01  0.6443E+01  0.4617E+02  0.4274E+02
      9.786  0.3798E+01  0.6206E+01  0.4640E+02  0.4312E+02
      9.847  0.4216E+01  0.5720E+01  0.4666E+02  0.4347E+02
      9.908  0.4362E+01  0.5278E+01  0.4693E+02  0.4379E+02
      9.969  0.4200E+01  0.5208E+01  0.4718E+02  0.4411E+02
     10.031  0.4165E+01  0.5536E+01  0.4744E+02  0.4445E+02
     10.092  0.4374E+01  0.5855E+01  0.4771E+02  0.4481E+02
     10.153  0.4492E+01  0.5928E+01  0.4798E+02  0.4517E+02
     10.214  0.4459E+01  0.6024E+01  0.4826E+02  0.4554E+02
     10.275  0.4262E+01  0.6072E+01  0.4852E+02  0.4592E+02
     10.337  0.3771E+01  0.5919E+01  0.4875E+02  0.4628E+02
     10.398  0.3148E+01  0.5641E+01  0.4894E+02  0.4662E+02
     10.459  0.2670E+01  0.5316E+01  0.4910E+02  0.4695E+02
     10.520  0.2605E+01  0.5081E+01  0.4926E+02  0.4726E+02
     10.581  0.2963E+01  0.4912E+01  0.4945E+02  0.4756E+02
     10.643  0.3408E+01  0.4566E+01  0.4965E+02  0.4784E+02
     10.704  0.3703E+01  0.4297E+01  0.4988E+02  0.4810E+02
     10.765  0.3857E+01  0.4518E+01  0.5012E+02  0.4838E+02
     10.826  0.4023E+01  0.4684E+01  0.5036E+02  0.4867E+02
     10.887  0.4162E+01  0.4205E+01  0.5062E+02  0.4893E+02
     10.949  0.4074E+01  0.3647E+01  0.5087E+02  0.4915E+02
     11.010  0.3849E+01  0.3547E+01  0.5110E+02  0.4937E+02
     11.071  0.3470E+01  0.3829E+01  0.5132E+02  0.4960E+02
     11.132  0.3162E+01  0.4338E+01  0.5151E+02  0.4987E+02
     11.194  0.3179E+01  0.4711E+01  0.5170E+02  0.5016E+02
     11.255  0.3319E+01  0.4590E+01  0.5191E+02  0.5044E+02
     11.316  0.3428E+01  0.4085E+01  0.5212E+02  0.5069E+02
     11.377  0.3347E+01  0.3525E+01  0.5232E+02  0.5090E+02
     11.438  0.3227E+01  0.3204E+01  0.5252E+02  0.5110E+02
     11.500  0.3459E+01  0.3189E+01  0.5273E+02  0.5129E+02
     11.561  0.3876E+01  0.3405E+01  0.5297E+02  0.5150E+02
     11.622  0.4183E+01  0.3743E+01  0.5323E+02  0.5173E+02
     11.683  0.4012E+01  0.3947E+01  0.5347E+02  0.5197E+02
     11.744  0.3672E+01  0.4117E+01  0.5370E+02  0.5223E+02
     11.806  0.3696E+01  0.4325E+01  0.5392E+02  0.5249E+02
     11.867  0.3996E+01  0.4369E+01  0.5417E+02  0.5276E+02
     11.928  0.3936E+01  0.4058E+01  0.5441E+02  0.5301E+02
     11.989  0.3415E+01  0.3622E+01  0.5462E+02  0.5323E+02
     12.050  0.2859E+01  0.3569E+01  0.5479E+02  0.5345E+02
     12.112  0.2487E+01  0.3727E+01  0.5495E+02  0.5368E+02
     12.173  0.2334E+01  0.3906E+01  0.5509E+02  0.5392E+02
     12.234  0.2201E+01  0.4114E+01  0.5522E+02  0.5417E+02
     12.295  0.1872E+01  0.3986E+01  0.5534E+02  0.5441E+02
     12.357  0.1456E+01  0.3445E+01  0.5543E+02  0.5462E+02
     12.418  0.1134E+01  0.3016E+01  0.5550E+02  0.5481E+02
     12.479  0.9240E+00  0.2882E+01  0.5555E+02  0.5498E+02
     12.540  0.7991E+00  0.2789E+01  0.5560E+02  0.5515E+02
     12.601  0.7999E+00  0.2419E+01  0.5565E+02  0.5530E+02
     12.663  0.8266E+00  0.1788E+01  0.5570E+02  0.5541E+02
     12.724  0.8607E+00  0.1395E+01  0.5576E+02  0.5550E+02
     12.785  0.8247E+00  0.1414E+01  0.5581E+02  0.5558E+02
     12.846  0.6779E+00  0.1461E+01  0.5585E+02  0.5567E+02
     12.907  0.5440E+00  0.1257E+01  0.5588E+02  0.5575E+02
     12.969  0.4722E+00  0.9274E+00  0.5591E+02  0.5581E+02
     13.030  0.4446E+00  0.6511E+00  0.5594E+02  0.5585E+02
     13.091  0.4249E+00  0.4673E+00  0.5596E+02  0.5588E+02
     13.152  0.2915E+00  0.3831E+00  0.5598E+02  0.5590E+02
     13.213  0.1339E+00  0.4018E+00  0.5599E+02  0.5592E+02
     13.275  0.5855E-01  0.4011E+00  0.5599E+02  0.5595E+02
     13.336  0.4448E-01  0.2949E+00  0.5600E+02  0.5597E+02
     13.397  0.4156E-01  0.1955E+00  0.5600E+02  0.5598E+02
     13.458  0.2510E-01  0.1352E+00  0.5600E+02  0.5599E+02
     13.519  0.9655E-02  0.8919E-01  0.5600E+02  0.5599E+02
     13.581  0.3155E-02  0.5963E-01  0.5600E+02  0.5600E+02
     13.642  0.9583E-03  0.3158E-01  0.5600E+02  0.5600E+02
     13.703  0.2845E-03  0.1225E-01  0.5600E+02  0.5600E+02
     13.764  0.0000E+00  0.3924E-02  0.5600E+02  0.5600E+02
     13.826  0.0000E+00  0.1045E-02  0.5600E+02  0.5600E+02
     13.887  0.0000E+00  0.3106E-03  0.5600E+02  0.5600E+02
     13.948  0.0000E+00  0.0000E+00  0.5600E+02  0.5600E+02
     14.009  0.0000E+00  0.0000E+00  0.5600E+02  0.5600E+02
     14.070  0.0000E+00  0.0000E+00  0.5600E+02  0.5600E+02
     14.132  0.0000E+00  0.0000E+00  0.5600E+02  0.5600E+02
     14.193  0.0000E+00  0.0000E+00  0.5600E+02  0.5600E+02
     14.254  0.0000E+00  0.0000E+00  0.5600E+02  0.5600E+02
     14.315  0.0000E+00  0.0000E+00  0.5600E+02  0.5600E+02
     14.376  0.0000E+00  0.0000E+00  0.5600E+02  0.5600E+02
     14.37643328     -3.98653385  301      7.00057338      1.00000000
     -3.987  0.0000E+00  0.0000E+00  0.0000E+00  0.0000E+00  0.0000E+00  0.0000E+00  0.0000E+00  0.0000E+00  0.0000E+00  0.0000E+00  0.0000E+00  0.0000E+00  0.0000E+00  0.0000E+00  0.0000E+00  0.0000E+00  0.0000E+00  0.0000E+00
     -3.925  0.0000E+00  0.0000E+00  0.0000E+00  0.0000E+00  0.0000E+00  0.0000E+00  0.0000E+00  0.0000E+00  0.0000E+00  0.0000E+00  0.0000E+00  0.0000E+00  0.0000E+00  0.0000E+00  0.0000E+00  0.0000E+00  0.0000E+00  0.0000E+00
     -3.864  0.0000E+00  0.0000E+00  0.0000E+00  0.0000E+00  0.0000E+00  0.0000E+00  0.0000E+00  0.0000E+00  0.0000E+00  0.0000E+00  0.0000E+00  0.0000E+00  0.0000E+00  0.0000E+00  0.0000E+00  0.0000E+00  0.0000E+00  0.0000E+00
     -3.803  0.0000E+00  0.0000E+00  0.0000E+00  0.0000E+00  0.0000E+00  0.0000E+00  0.0000E+00  0.0000E+00  0.0000E+00  0.0000E+00  0.0000E+00  0.0000E+00  0.0000E+00  0.0000E+00  0.0000E+00  0.0000E+00  0.0000E+00  0.0000E+00
     -3.742  0.0000E+00  0.0000E+00  0.0000E+00  0.0000E+00  0.0000E+00  0.0000E+00  0.0000E+00  0.0000E+00  0.0000E+00  0.0000E+00  0.0000E+00  0.0000E+00  0.0000E+00  0.0000E+00  0.0000E+00  0.0000E+00  0.0000E+00  0.0000E+00
     -3.680  0.0000E+00  0.0000E+00  0.0000E+00  0.0000E+00  0.0000E+00  0.0000E+00  0.0000E+00  0.0000E+00  0.0000E+00  0.0000E+00  0.0000E+00  0.0000E+00  0.0000E+00  0.0000E+00  0.0000E+00  0.0000E+00  0.0000E+00  0.0000E+00
     -3.619  0.0000E+00  0.0000E+00  0.0000E+00  0.0000E+00  0.0000E+00  0.0000E+00  0.0000E+00  0.0000E+00  0.0000E+00  0.0000E+00  0.0000E+00  0.0000E+00  0.0000E+00  0.0000E+00  0.0000E+00  0.0000E+00  0.0000E+00  0.0000E+00
     -3.558  0.2183E-06  0.1842E-06  0.1841E-20  0.9492E-20  0.2967E-09  0.1002E-09  0.1841E-20  0.9492E-20  0.7474E-16  0.6544E-18  0.1005E-15  0.1997E-16  0.8043E-11  0.1986E-10  0.1005E-15  0.1997E-16  0.1837E-15  0.1017E-14
     -3.497  0.2842E-05  0.2417E-05  0.9445E-08  0.8625E-08  0.1476E-07  0.1133E-07  0.9445E-08  0.8625E-08  0.4540E-10  0.3616E-10  0.8855E-10  0.5549E-10  0.1461E-09  0.2931E-09  0.8855E-10  0.5549E-10  0.2914E-10  0.1903E-10
     -3.436  0.7990E-05  0.6801E-05  0.2839E-07  0.2597E-07  0.4386E-07  0.3409E-07  0.2839E-07  0.2597E-07  0.2060E-09  0.1644E-09  0.3441E-09  0.2283E-09  0.3963E-09  0.8148E-09  0.3441E-09  0.2283E-09  0.6992E-10  0.4566E-10
     -3.374  0.2695E-04  0.2294E-04  0.9741E-07  0.8924E-07  0.1489E-06  0.1158E-06  0.9741E-07  0.8924E-07  0.6032E-09  0.4812E-09  0.1069E-08  0.6956E-09  0.1474E-08  0.2849E-08  0.1069E-08  0.6956E-09  0.3550E-09  0.2330E-09
     -3.313  0.9222E-04  0.7855E-04  0.3589E-06  0.3295E-06  0.5379E-06  0.4227E-06  0.3589E-06  0.3295E-06  0.2565E-08  0.2056E-08  0.4284E-08  0.2834E-08  0.5398E-08  0.1002E-07  0.4284E-08  0.2834E-08  0.1495E-08  0.9848E-09
     -3.252  0.3005E-03  0.2561E-03  0.1209E-05  0.1111E-05  0.1802E-05  0.1423E-05  0.1209E-05  0.1111E-05  0.9383E-08  0.7531E-08  0.1527E-07  0.1021E-07  0.1765E-07  0.3272E-07  0.1527E-07  0.1021E-07  0.4910E-08  0.3234E-08
     -3.191  0.8979E-03  0.7660E-03  0.3837E-05  0.3525E-05  0.5651E-05  0.4499E-05  0.3837E-05  0.3525E-05  0.2992E-07  0.2400E-07  0.4862E-07  0.3253E-07  0.5390E-07  0.9873E-07  0.4862E-07  0.3253E-07  0.1557E-07  0.1026E-07
     -3.130  0.2259E-02  0.1930E-02  0.1113E-04  0.1023E-04  0.1599E-04  0.1295E-04  0.1113E-04  0.1023E-04  0.9572E-07  0.7680E-07  0.1507E-06  0.1019E-06  0.1452E-06  0.2558E-06  0.1507E-06  0.1019E-06  0.4656E-07  0.3069E-07
     -3.068  0.4359E-02  0.3727E-02  0.2652E-04  0.2442E-04  0.3686E-04  0.3053E-04  0.2652E-04  0.2442E-04  0.2684E-06  0.2154E-06  0.4047E-06  0.2783E-06  0.3219E-06  0.5249E-06  0.4047E-06  0.2783E-06  0.1236E-06  0.8158E-07
     -3.007  0.6315E-02  0.5401E-02  0.5047E-04  0.4657E-04  0.6729E-04  0.5699E-04  0.5047E-04  0.4657E-04  0.6095E-06  0.4897E-06  0.8796E-06  0.6141E-06  0.6209E-06  0.8750E-06  0.8796E-06  0.6141E-06  0.3063E-06  0.2025E-06
     -2.946  0.7789E-02  0.6667E-02  0.8539E-04  0.7901E-04  0.1098E-03  0.9484E-04  0.8539E-04  0.7901E-04  0.1225E-05  0.9870E-06  0.1696E-05  0.1200E-05  0.1183E-05  0.1381E-05  0.1696E-05  0.1200E-05  0.7138E-06  0.4705E-06
     -2.885  0.9839E-02  0.8411E-02  0.1388E-03  0.1282E-03  0.1779E-03  0.1554E-03  0.1388E-03  0.1282E-03  0.2407E-05  0.1936E-05  0.3235E-05  0.2312E-05  0.2076E-05  0.2142E-05  0.3235E-05  0.2312E-05  0.1349E-05  0.8822E-06
     -2.824  0.1163E-01  0.9871E-02  0.1910E-03  0.1753E-03  0.2495E-03  0.2178E-03  0.1910E-03  0.1753E-03  0.4088E-05  0.3270E-05  0.5367E-05  0.3866E-05  0.2855E-05  0.2773E-05  0.5367E-05  0.3866E-05  0.1872E-05  0.1216E-05
     -2.762  0.1124E-01  0.9483E-02  0.2158E-03  0.1982E-03  0.2865E-03  0.2480E-03  0.2158E-03  0.1982E-03  0.5754E-05  0.4601E-05  0.7378E-05  0.5343E-05  0.3441E-05  0.3131E-05  0.7378E-05  0.5343E-05  0.2290E-05  0.1496E-05
     -2.701  0.1124E-01  0.9515E-02  0.2684E-03  0.2492E-03  0.3508E-03  0.3040E-03  0.2684E-03  0.2492E-03  0.8427E-05  0.6764E-05  0.1072E-04  0.7795E-05  0.5048E-05  0.4317E-05  0.1072E-04  0.7795E-05  0.3661E-05  0.2422E-05
     -2.640  0.1347E-01  0.1148E-01  0.3835E-03  0.3558E-03  0.4677E-03  0.4165E-03  0.3835E-03  0.3558E-03  0.1248E-04  0.9944E-05  0.1598E-04  0.1157E-04  0.8137E-05  0.6861E-05  0.1598E-04  0.1157E-04  0.6704E-05  0.4404E-05
     -2.579  0.1475E-01  0.1266E-01  0.4776E-03  0.4395E-03  0.5288E-03  0.4968E-03  0.4776E-03  0.4395E-03  0.1589E-04  0.1261E-04  0.1993E-04  0.1448E-04  0.1102E-04  0.9233E-05  0.1993E-04  0.1448E-04  0.9980E-05  0.6416E-05
     -2.517  0.1434E-01  0.1233E-01  0.5122E-03  0.4691E-03  0.5694E-03  0.5494E-03  0.5122E-03  0.4691E-03  0.2016E-04  0.1610E-04  0.2444E-04  0.1799E-04  0.1249E-04  0.9999E-05  0.2444E-04  0.1799E-04  0.1104E-04  0.6951E-05
     -2.456  0.1450E-01  0.1230E-01  0.5591E-03  0.5155E-03  0.6835E-03  0.6374E-03  0.5591E-03  0.5155E-03  0.2858E-04  0.2289E-04  0.3352E-04  0.2500E-04  0.1381E-04  0.1041E-04  0.3352E-04  0.2500E-04  0.1091E-04  0.6900E-05
     -2.395  0.1526E-01  0.1298E-01  0.6538E-03  0.6081E-03  0.7645E-03  0.7192E-03  0.6538E-03  0.6081E-03  0.3921E-04  0.3102E-04  0.4325E-04  0.3304E-04  0.1545E-04  0.1173E-04  0.4325E-04  0.3304E-04  0.1262E-04  0.8130E-05
     -2.334  0.1468E-01  0.1257E-01  0.6976E-03  0.6471E-03  0.7529E-03  0.7395E-03  0.6976E-03  0.6471E-03  0.4289E-04  0.3327E-04  0.4746E-04  0.3644E-04  0.1677E-04  0.1301E-04  0.4746E-04  0.3644E-04  0.1581E-04  0.1026E-04
     -2.273  0.1405E-01  0.1192E-01  0.7403E-03  0.6898E-03  0.8083E-03  0.7889E-03  0.7403E-03  0.6898E-03  0.4304E-04  0.3383E-04  0.5247E-04  0.3899E-04  0.2156E-04  0.1671E-04  0.5247E-04  0.3899E-04  0.2220E-04  0.1448E-04
     -2.211  0.1606E-01  0.1359E-01  0.9467E-03  0.8861E-03  0.1024E-02  0.1001E-02  0.9467E-03  0.8861E-03  0.5674E-04  0.4569E-04  0.6725E-04  0.4992E-04  0.3340E-04  0.2534E-04  0.6725E-04  0.4992E-04  0.3350E-04  0.2138E-04
     -2.150  0.1817E-01  0.1541E-01  0.1140E-02  0.1062E-02  0.1270E-02  0.1256E-02  0.1140E-02  0.1062E-02  0.7836E-04  0.6249E-04  0.8228E-04  0.6377E-04  0.4621E-04  0.3287E-04  0.8228E-04  0.6377E-04  0.4079E-04  0.2538E-04
     -2.089  0.1808E-01  0.1532E-01  0.1185E-02  0.1108E-02  0.1391E-02  0.1360E-02  0.1185E-02  0.1108E-02  0.9542E-04  0.7492E-04  0.9361E-04  0.7520E-04  0.5108E-04  0.3432E-04  0.9361E-04  0.7520E-04  0.4077E-04  0.2551E-04
     -2.028  0.1818E-01  0.1525E-01  0.1269E-02  0.1178E-02  0.1500E-02  0.1459E-02  0.1269E-02  0.1178E-02  0.1116E-03  0.8665E-04  0.1175E-03  0.9271E-04  0.5138E-04  0.3460E-04  0.1175E-03  0.9271E-04  0.4370E-04  0.2721E-04
     -1.967  0.1829E-01  0.1473E-01  0.1322E-02  0.1186E-02  0.1668E-02  0.1557E-02  0.1322E-02  0.1186E-02  0.1234E-03  0.9463E-04  0.1443E-03  0.1080E-03  0.5172E-04  0.3388E-04  0.1443E-03  0.1080E-03  0.4487E-04  0.2648E-04
     -1.905  0.1567E-01  0.1235E-01  0.1179E-02  0.1060E-02  0.1577E-02  0.1415E-02  0.1179E-02  0.1060E-02  0.1218E-03  0.9479E-04  0.1452E-03  0.1066E-03  0.4688E-04  0.2978E-04  0.1452E-03  0.1066E-03  0.3862E-04  0.2280E-04
     -1.844  0.1397E-01  0.1163E-01  0.1213E-02  0.1157E-02  0.1428E-02  0.1401E-02  0.1213E-02  0.1157E-02  0.1381E-03  0.1103E-03  0.1518E-03  0.1158E-03  0.4685E-04  0.3394E-04  0.1518E-03  0.1158E-03  0.4356E-04  0.2814E-04
     -1.783  0.1602E-01  0.1386E-01  0.1602E-02  0.1558E-02  0.1669E-02  0.1827E-02  0.1602E-02  0.1558E-02  0.1881E-03  0.1471E-03  0.1871E-03  0.1470E-03  0.6869E-04  0.5331E-04  0.1871E-03  0.1470E-03  0.6786E-04  0.4513E-04
     -1.722  0.1883E-01  0.1615E-01  0.2007E-02  0.1921E-02  0.2200E-02  0.2413E-02  0.2007E-02  0.1921E-02  0.2298E-03  0.1751E-03  0.2260E-03  0.1811E-03  0.1029E-03  0.7370E-04  0.2260E-03  0.1811E-03  0.9787E-04  0.6256E-04
     -1.661  0.1967E-01  0.1604E-01  0.2138E-02  0.1978E-02  0.2693E-02  0.2679E-02  0.2138E-02  0.1978E-02  0.2358E-03  0.1802E-03  0.2614E-03  0.2043E-03  0.1212E-03  0.7702E-04  0.2614E-03  0.2043E-03  0.1137E-03  0.6764E-04
     -1.599  0.1893E-01  0.1512E-01  0.2158E-02  0.2000E-02  0.2824E-02  0.2702E-02  0.2158E-02  0.2000E-02  0.2558E-03  0.2036E-03  0.2948E-03  0.2292E-03  0.1193E-03  0.7368E-04  0.2948E-03  0.2292E-03  0.1149E-03  0.6639E-04
     -1.538  0.1869E-01  0.1497E-01  0.2295E-02  0.2112E-02  0.2904E-02  0.2936E-02  0.2295E-02  0.2112E-02  0.3064E-03  0.2376E-03  0.3366E-03  0.2621E-03  0.1217E-03  0.7719E-04  0.3366E-03  0.2621E-03  0.1181E-03  0.6768E-04
     -1.477  0.1732E-01  0.1301E-01  0.2196E-02  0.1917E-02  0.3066E-02  0.2977E-02  0.2196E-02  0.1917E-02  0.3192E-03  0.2345E-03  0.3612E-03  0.2626E-03  0.1220E-03  0.7102E-04  0.3612E-03  0.2626E-03  0.1092E-03  0.5949E-04
     -1.416  0.1476E-01  0.1104E-01  0.1992E-02  0.1789E-02  0.2974E-02  0.2961E-02  0.1992E-02  0.1789E-02  0.3409E-03  0.2571E-03  0.3715E-03  0.2778E-03  0.1077E-03  0.6222E-04  0.3715E-03  0.2778E-03  0.9043E-04  0.5024E-04
     -1.355  0.1471E-01  0.1209E-01  0.2238E-02  0.2179E-02  0.3242E-02  0.3492E-02  0.2238E-02  0.2179E-02  0.4379E-03  0.3420E-03  0.4547E-03  0.3732E-03  0.1070E-03  0.7144E-04  0.4547E-03  0.3732E-03  0.9501E-04  0.5762E-04
     -1.293  0.1605E-01  0.1344E-01  0.2639E-02  0.2650E-02  0.3972E-02  0.4035E-02  0.2639E-02  0.2650E-02  0.5264E-03  0.4088E-03  0.5698E-03  0.4642E-03  0.1283E-03  0.8894E-04  0.5698E-03  0.4642E-03  0.1157E-03  0.7365E-04
     -1.232  0.1653E-01  0.1351E-01  0.3002E-02  0.3053E-02  0.4371E-02  0.4146E-02  0.3002E-02  0.3053E-02  0.5650E-03  0.4290E-03  0.6455E-03  0.5040E-03  0.1504E-03  0.1006E-03  0.6455E-03  0.5040E-03  0.1452E-03  0.9422E-04
     -1.171  0.1644E-01  0.1257E-01  0.3455E-02  0.3348E-02  0.4369E-02  0.3749E-02  0.3455E-02  0.3348E-02  0.5765E-03  0.4258E-03  0.7080E-03  0.5136E-03  0.1569E-03  0.9963E-04  0.7080E-03  0.5136E-03  0.1863E-03  0.1093E-03
     -1.110  0.1496E-01  0.1073E-01  0.3658E-02  0.3382E-02  0.4013E-02  0.3207E-02  0.3658E-02  0.3382E-02  0.5806E-03  0.4311E-03  0.7229E-03  0.5036E-03  0.1484E-03  0.9346E-04  0.7229E-03  0.5036E-03  0.2028E-03  0.1053E-03
     -1.048  0.1267E-01  0.9206E-02  0.3675E-02  0.3477E-02  0.3460E-02  0.3028E-02  0.3675E-02  0.3477E-02  0.6245E-03  0.4831E-03  0.7117E-03  0.5228E-03  0.1434E-03  0.9296E-04  0.7117E-03  0.5228E-03  0.1888E-03  0.9739E-04
     -0.987  0.1178E-01  0.9044E-02  0.3956E-02  0.3700E-02  0.3289E-02  0.3319E-02  0.3956E-02  0.3700E-02  0.7808E-03  0.6118E-03  0.7895E-03  0.6274E-03  0.1499E-03  0.9686E-04  0.7895E-03  0.6274E-03  0.1799E-03  0.9001E-04
     -0.926  0.1256E-01  0.1000E-01  0.4265E-02  0.3876E-02  0.3885E-02  0.3924E-02  0.4265E-02  0.3876E-02  0.1019E-02  0.7832E-03  0.1021E-02  0.8061E-03  0.1583E-03  0.1015E-03  0.1021E-02  0.8061E-03  0.1659E-03  0.7908E-04