   2   2   1   0
  0.3020889E+02  0.3552420E-09  0.3552420E-09  0.5528222E-09  0.5000000E-15
  1.000000000000000E-004
  CAR 
 unknown system                          
      8.31855135    -50.09169639  301      2.58414653      1.00000000
    -50.092  0.0000E+00  0.0000E+00  0.0000E+00  0.0000E+00
    -49.897  0.0000E+00  0.0000E+00  0.0000E+00  0.0000E+00
    -49.702  0.0000E+00  0.0000E+00  0.0000E+00  0.0000E+00
    -49.508  0.0000E+00  0.0000E+00  0.0000E+00  0.0000E+00
    -49.313  0.0000E+00  0.0000E+00  0.0000E+00  0.0000E+00
    -49.118  0.0000E+00  0.0000E+00  0.0000E+00  0.0000E+00
    -48.923  0.0000E+00  0.0000E+00  0.0000E+00  0.0000E+00
    -48.729  0.0000E+00  0.0000E+00  0.0000E+00  0.0000E+00
    -48.534  0.0000E+00  0.0000E+00  0.0000E+00  0.0000E+00
    -48.339  0.0000E+00  0.0000E+00  0.0000E+00  0.0000E+00
    -48.145  0.0000E+00  0.0000E+00  0.0000E+00  0.0000E+00
    -47.950  0.2237E-03  0.0000E+00  0.4356E-04  0.0000E+00
    -47.755  0.1075E-01  0.9057E-03  0.2137E-02  0.1763E-03
    -47.561  0.5011E+00  0.4338E-01  0.9970E-01  0.8622E-02
    -47.366  0.6859E+01  0.1751E+01  0.1435E+01  0.3496E+00
    -47.171  0.2819E+01  0.7564E+01  0.1984E+01  0.1822E+01
    -46.976  0.0000E+00  0.8923E+00  0.2000E+01  0.1996E+01
    -46.782  0.0000E+00  0.0000E+00  0.2000E+01  0.2000E+01
    -46.587  0.0000E+00  0.0000E+00  0.2000E+01  0.2000E+01
    -46.392  0.0000E+00  0.0000E+00  0.2000E+01  0.2000E+01
    -46.198  0.0000E+00  0.0000E+00  0.2000E+01  0.2000E+01
    -46.003  0.0000E+00  0.0000E+00  0.2000E+01  0.2000E+01
    -45.808  0.0000E+00  0.0000E+00  0.2000E+01  0.2000E+01
    -45.614  0.0000E+00  0.0000E+00  0.2000E+01  0.2000E+01
    -45.419  0.0000E+00  0.0000E+00  0.2000E+01  0.2000E+01
    -45.224  0.0000E+00  0.0000E+00  0.2000E+01  0.2000E+01
    -45.029  0.0000E+00  0.0000E+00  0.2000E+01  0.2000E+01
    -44.835  0.0000E+00  0.0000E+00  0.2000E+01  0.2000E+01
    -44.640  0.0000E+00  0.0000E+00  0.2000E+01  0.2000E+01
    -44.445  0.0000E+00  0.0000E+00  0.2000E+01  0.2000E+01
    -44.251  0.0000E+00  0.0000E+00  0.2000E+01  0.2000E+01
    -44.056  0.0000E+00  0.0000E+00  0.2000E+01  0.2000E+01
    -43.861  0.0000E+00  0.0000E+00  0.2000E+01  0.2000E+01
    -43.667  0.0000E+00  0.0000E+00  0.2000E+01  0.2000E+01
    -43.472  0.0000E+00  0.0000E+00  0.2000E+01  0.2000E+01
    -43.277  0.0000E+00  0.0000E+00  0.2000E+01  0.2000E+01
    -43.082  0.0000E+00  0.0000E+00  0.2000E+01  0.2000E+01
    -42.888  0.0000E+00  0.0000E+00  0.2000E+01  0.2000E+01
    -42.693  0.0000E+00  0.0000E+00  0.2000E+01  0.2000E+01
    -42.498  0.0000E+00  0.0000E+00  0.2000E+01  0.2000E+01
    -42.304  0.0000E+00  0.0000E+00  0.2000E+01  0.2000E+01
    -42.109  0.0000E+00  0.0000E+00  0.2000E+01  0.2000E+01
    -41.914  0.0000E+00  0.0000E+00  0.2000E+01  0.2000E+01
    -41.720  0.0000E+00  0.0000E+00  0.2000E+01  0.2000E+01
    -41.525  0.0000E+00  0.0000E+00  0.2000E+01  0.2000E+01
    -41.330  0.0000E+00  0.0000E+00  0.2000E+01  0.2000E+01
    -41.135  0.0000E+00  0.0000E+00  0.2000E+01  0.2000E+01
    -40.941  0.0000E+00  0.0000E+00  0.2000E+01  0.2000E+01
    -40.746  0.0000E+00  0.0000E+00  0.2000E+01  0.2000E+01
    -40.551  0.0000E+00  0.0000E+00  0.2000E+01  0.2000E+01
    -40.357  0.0000E+00  0.0000E+00  0.2000E+01  0.2000E+01
    -40.162  0.0000E+00  0.0000E+00  0.2000E+01  0.2000E+01
    -39.967  0.0000E+00  0.0000E+00  0.2000E+01  0.2000E+01
    -39.773  0.0000E+00  0.0000E+00  0.2000E+01  0.2000E+01
    -39.578  0.0000E+00  0.0000E+00  0.2000E+01  0.2000E+01
    -39.383  0.0000E+00  0.0000E+00  0.2000E+01  0.2000E+01
    -39.188  0.0000E+00  0.0000E+00  0.2000E+01  0.2000E+01
    -38.994  0.0000E+00  0.0000E+00  0.2000E+01  0.2000E+01
    -38.799  0.0000E+00  0.0000E+00  0.2000E+01  0.2000E+01
    -38.604  0.0000E+00  0.0000E+00  0.2000E+01  0.2000E+01
    -38.410  0.0000E+00  0.0000E+00  0.2000E+01  0.2000E+01
    -38.215  0.0000E+00  0.0000E+00  0.2000E+01  0.2000E+01
    -38.020  0.0000E+00  0.0000E+00  0.2000E+01  0.2000E+01
    -37.826  0.0000E+00  0.0000E+00  0.2000E+01  0.2000E+01
    -37.631  0.0000E+00  0.0000E+00  0.2000E+01  0.2000E+01
    -37.436  0.0000E+00  0.0000E+00  0.2000E+01  0.2000E+01
    -37.241  0.0000E+00  0.0000E+00  0.2000E+01  0.2000E+01
    -37.047  0.0000E+00  0.0000E+00  0.2000E+01  0.2000E+01
    -36.852  0.0000E+00  0.0000E+00  0.2000E+01  0.2000E+01
    -36.657  0.0000E+00  0.0000E+00  0.2000E+01  0.2000E+01
    -36.463  0.0000E+00  0.0000E+00  0.2000E+01  0.2000E+01
    -36.268  0.0000E+00  0.0000E+00  0.2000E+01  0.2000E+01
    -36.073  0.0000E+00  0.0000E+00  0.2000E+01  0.2000E+01
    -35.879  0.0000E+00  0.0000E+00  0.2000E+01  0.2000E+01
    -35.684  0.0000E+00  0.0000E+00  0.2000E+01  0.2000E+01
    -35.489  0.0000E+00  0.0000E+00  0.2000E+01  0.2000E+01
    -35.294  0.0000E+00  0.0000E+00  0.2000E+01  0.2000E+01
    -35.100  0.0000E+00  0.0000E+00  0.2000E+01  0.2000E+01
    -34.905  0.0000E+00  0.0000E+00  0.2000E+01  0.2000E+01
    -34.710  0.0000E+00  0.0000E+00  0.2000E+01  0.2000E+01
    -34.516  0.0000E+00  0.0000E+00  0.2000E+01  0.2000E+01
    -34.321  0.0000E+00  0.0000E+00  0.2000E+01  0.2000E+01
    -34.126  0.0000E+00  0.0000E+00  0.2000E+01  0.2000E+01
    -33.932  0.0000E+00  0.0000E+00  0.2000E+01  0.2000E+01
    -33.737  0.0000E+00  0.0000E+00  0.2000E+01  0.2000E+01
    -33.542  0.0000E+00  0.0000E+00  0.2000E+01  0.2000E+01
    -33.347  0.0000E+00  0.0000E+00  0.2000E+01  0.2000E+01
    -33.153  0.0000E+00  0.0000E+00  0.2000E+01  0.2000E+01
    -32.958  0.0000E+00  0.0000E+00  0.2000E+01  0.2000E+01
    -32.763  0.0000E+00  0.0000E+00  0.2000E+01  0.2000E+01
    -32.569  0.0000E+00  0.0000E+00  0.2000E+01  0.2000E+01
    -32.374  0.0000E+00  0.0000E+00  0.2000E+01  0.2000E+01
    -32.179  0.0000E+00  0.0000E+00  0.2000E+01  0.2000E+01
    -31.985  0.0000E+00  0.0000E+00  0.2000E+01  0.2000E+01
    -31.790  0.0000E+00  0.0000E+00  0.2000E+01  0.2000E+01
    -31.595  0.0000E+00  0.0000E+00  0.2000E+01  0.2000E+01
    -31.400  0.0000E+00  0.0000E+00  0.2000E+01  0.2000E+01
    -31.206  0.0000E+00  0.0000E+00  0.2000E+01  0.2000E+01
    -31.011  0.0000E+00  0.0000E+00  0.2000E+01  0.2000E+01
    -30.816  0.0000E+00  0.0000E+00  0.2000E+01  0.2000E+01
    -30.622  0.0000E+00  0.0000E+00  0.2000E+01  0.2000E+01
    -30.427  0.0000E+00  0.0000E+00  0.2000E+01  0.2000E+01
    -30.232  0.0000E+00  0.0000E+00  0.2000E+01  0.2000E+01
    -30.038  0.0000E+00  0.0000E+00  0.2000E+01  0.2000E+01
    -29.843  0.0000E+00  0.0000E+00  0.2000E+01  0.2000E+01
    -29.648  0.0000E+00  0.0000E+00  0.2000E+01  0.2000E+01
    -29.453  0.0000E+00  0.0000E+00  0.2000E+01  0.2000E+01
    -29.259  0.0000E+00  0.0000E+00  0.2000E+01  0.2000E+01
    -29.064  0.0000E+00  0.0000E+00  0.2000E+01  0.2000E+01
    -28.869  0.0000E+00  0.0000E+00  0.2000E+01  0.2000E+01
    -28.675  0.0000E+00  0.0000E+00  0.2000E+01  0.2000E+01
    -28.480  0.0000E+00  0.0000E+00  0.2000E+01  0.2000E+01
    -28.285  0.0000E+00  0.0000E+00  0.2000E+01  0.2000E+01
    -28.091  0.0000E+00  0.0000E+00  0.2000E+01  0.2000E+01
    -27.896  0.0000E+00  0.0000E+00  0.2000E+01  0.2000E+01
    -27.701  0.0000E+00  0.0000E+00  0.2000E+01  0.2000E+01
    -27.506  0.0000E+00  0.0000E+00  0.2000E+01  0.2000E+01
    -27.312  0.0000E+00  0.0000E+00  0.2000E+01  0.2000E+01
    -27.117  0.0000E+00  0.0000E+00  0.2000E+01  0.2000E+01
    -26.922  0.0000E+00  0.0000E+00  0.2000E+01  0.2000E+01
    -26.728  0.0000E+00  0.0000E+00  0.2000E+01  0.2000E+01
    -26.533  0.1493E-02  0.7710E-04  0.2000E+01  0.2000E+01
    -26.338  0.7171E-01  0.5911E-02  0.2014E+01  0.2001E+01
    -26.143  0.2851E+01  0.2820E+00  0.2569E+01  0.2056E+01
    -25.949  0.1945E+02  0.7519E+01  0.6357E+01  0.3520E+01
    -25.754  0.8153E+01  0.1998E+02  0.7945E+01  0.7410E+01
    -25.559  0.1292E+00  0.2908E+01  0.7999E+01  0.7986E+01
    -25.365  0.0000E+00  0.0000E+00  0.8000E+01  0.8000E+01
    -25.170  0.0000E+00  0.0000E+00  0.8000E+01  0.8000E+01
    -24.975  0.0000E+00  0.0000E+00  0.8000E+01  0.8000E+01
    -24.781  0.0000E+00  0.0000E+00  0.8000E+01  0.8000E+01
    -24.586  0.0000E+00  0.0000E+00  0.8000E+01  0.8000E+01
    -24.391  0.0000E+00  0.0000E+00  0.8000E+01  0.8000E+01
    -24.196  0.0000E+00  0.0000E+00  0.8000E+01  0.8000E+01
    -24.002  0.0000E+00  0.0000E+00  0.8000E+01  0.8000E+01
    -23.807  0.0000E+00  0.0000E+00  0.8000E+01  0.8000E+01
    -23.612  0.0000E+00  0.0000E+00  0.8000E+01  0.8000E+01
    -23.418  0.0000E+00  0.0000E+00  0.8000E+01  0.8000E+01
    -23.223  0.0000E+00  0.0000E+00  0.8000E+01  0.8000E+01
    -23.028  0.0000E+00  0.0000E+00  0.8000E+01  0.8000E+01
    -22.834  0.0000E+00  0.0000E+00  0.8000E+01  0.8000E+01
    -22.639  0.0000E+00  0.0000E+00  0.8000E+01  0.8000E+01
    -22.444  0.0000E+00  0.0000E+00  0.8000E+01  0.8000E+01
    -22.249  0.0000E+00  0.0000E+00  0.8000E+01  0.8000E+01
    -22.055  0.0000E+00  0.0000E+00  0.8000E+01  0.8000E+01
    -21.860  0.0000E+00  0.0000E+00  0.8000E+01  0.8000E+01
    -21.665  0.0000E+00  0.0000E+00  0.8000E+01  0.8000E+01
    -21.471  0.0000E+00  0.0000E+00  0.8000E+01  0.8000E+01
    -21.276  0.0000E+00  0.0000E+00  0.8000E+01  0.8000E+01
    -21.081  0.0000E+00  0.0000E+00  0.8000E+01  0.8000E+01
    -20.887  0.0000E+00  0.0000E+00  0.8000E+01  0.8000E+01
    -20.692  0.0000E+00  0.0000E+00  0.8000E+01  0.8000E+01
    -20.497  0.0000E+00  0.0000E+00  0.8000E+01  0.8000E+01
    -20.302  0.0000E+00  0.0000E+00  0.8000E+01  0.8000E+01
    -20.108  0.0000E+00  0.0000E+00  0.8000E+01  0.8000E+01
    -19.913  0.0000E+00  0.0000E+00  0.8000E+01  0.8000E+01
    -19.718  0.0000E+00  0.0000E+00  0.8000E+01  0.8000E+01
    -19.524  0.0000E+00  0.0000E+00  0.8000E+01  0.8000E+01
    -19.329  0.0000E+00  0.0000E+00  0.8000E+01  0.8000E+01
    -19.134  0.0000E+00  0.0000E+00  0.8000E+01  0.8000E+01
    -18.940  0.0000E+00  0.0000E+00  0.8000E+01  0.8000E+01
    -18.745  0.0000E+00  0.0000E+00  0.8000E+01  0.8000E+01
    -18.550  0.0000E+00  0.0000E+00  0.8000E+01  0.8000E+01
    -18.355  0.0000E+00  0.0000E+00  0.8000E+01  0.8000E+01
    -18.161  0.0000E+00  0.0000E+00  0.8000E+01  0.8000E+01
    -17.966  0.0000E+00  0.0000E+00  0.8000E+01  0.8000E+01
    -17.771  0.0000E+00  0.0000E+00  0.8000E+01  0.8000E+01
    -17.577  0.0000E+00  0.0000E+00  0.8000E+01  0.8000E+01
    -17.382  0.0000E+00  0.0000E+00  0.8000E+01  0.8000E+01
    -17.187  0.0000E+00  0.0000E+00  0.8000E+01  0.8000E+01
    -16.993  0.0000E+00  0.0000E+00  0.8000E+01  0.8000E+01
    -16.798  0.0000E+00  0.0000E+00  0.8000E+01  0.8000E+01
    -16.603  0.0000E+00  0.0000E+00  0.8000E+01  0.8000E+01
    -16.408  0.0000E+00  0.0000E+00  0.8000E+01  0.8000E+01
    -16.214  0.0000E+00  0.0000E+00  0.8000E+01  0.8000E+01
    -16.019  0.0000E+00  0.0000E+00  0.8000E+01  0.8000E+01
    -15.824  0.0000E+00  0.0000E+00  0.8000E+01  0.8000E+01
    -15.630  0.0000E+00  0.0000E+00  0.8000E+01  0.8000E+01
    -15.435  0.0000E+00  0.0000E+00  0.8000E+01  0.8000E+01
    -15.240  0.0000E+00  0.0000E+00  0.8000E+01  0.8000E+01
    -15.046  0.0000E+00  0.0000E+00  0.8000E+01  0.8000E+01
    -14.851  0.0000E+00  0.0000E+00  0.8000E+01  0.8000E+01
    -14.656  0.0000E+00  0.0000E+00  0.8000E+01  0.8000E+01
    -14.461  0.0000E+00  0.0000E+00  0.8000E+01  0.8000E+01
    -14.267  0.0000E+00  0.0000E+00  0.8000E+01  0.8000E+01
    -14.072  0.0000E+00  0.0000E+00  0.8000E+01  0.8000E+01
    -13.877  0.0000E+00  0.0000E+00  0.8000E+01  0.8000E+01
    -13.683  0.0000E+00  0.0000E+00  0.8000E+01  0.8000E+01
    -13.488  0.0000E+00  0.0000E+00  0.8000E+01  0.8000E+01
    -13.293  0.0000E+00  0.0000E+00  0.8000E+01  0.8000E+01
    -13.099  0.0000E+00  0.0000E+00  0.8000E+01  0.8000E+01
    -12.904  0.0000E+00  0.0000E+00  0.8000E+01  0.8000E+01
    -12.709  0.0000E+00  0.0000E+00  0.8000E+01  0.8000E+01
    -12.514  0.0000E+00  0.0000E+00  0.8000E+01  0.8000E+01
    -12.320  0.0000E+00  0.0000E+00  0.8000E+01  0.8000E+01
    -12.125  0.0000E+00  0.0000E+00  0.8000E+01  0.8000E+01
    -11.930  0.0000E+00  0.0000E+00  0.8000E+01  0.8000E+01
    -11.736  0.0000E+00  0.0000E+00  0.8000E+01  0.8000E+01
    -11.541  0.0000E+00  0.0000E+00  0.8000E+01  0.8000E+01
    -11.346  0.0000E+00  0.0000E+00  0.8000E+01  0.8000E+01
    -11.152  0.0000E+00  0.0000E+00  0.8000E+01  0.8000E+01
    -10.957  0.0000E+00  0.0000E+00  0.8000E+01  0.8000E+01
    -10.762  0.0000E+00  0.0000E+00  0.8000E+01  0.8000E+01
    -10.567  0.0000E+00  0.0000E+00  0.8000E+01  0.8000E+01
    -10.373  0.0000E+00  0.0000E+00  0.8000E+01  0.8000E+01
    -10.178  0.0000E+00  0.0000E+00  0.8000E+01  0.8000E+01
     -9.983  0.0000E+00  0.0000E+00  0.8000E+01  0.8000E+01
     -9.789  0.0000E+00  0.0000E+00  0.8000E+01  0.8000E+01
     -9.594  0.0000E+00  0.0000E+00  0.8000E+01  0.8000E+01
     -9.399  0.0000E+00  0.0000E+00  0.8000E+01  0.8000E+01
     -9.205  0.0000E+00  0.0000E+00  0.8000E+01  0.8000E+01
     -9.010  0.0000E+00  0.0000E+00  0.8000E+01  0.8000E+01
     -8.815  0.0000E+00  0.0000E+00  0.8000E+01  0.8000E+01
     -8.620  0.0000E+00  0.0000E+00  0.8000E+01  0.8000E+01
     -8.426  0.0000E+00  0.0000E+00  0.8000E+01  0.8000E+01
     -8.231  0.0000E+00  0.0000E+00  0.8000E+01  0.8000E+01
     -8.036  0.0000E+00  0.0000E+00  0.8000E+01  0.8000E+01
     -7.842  0.0000E+00  0.0000E+00  0.8000E+01  0.8000E+01
     -7.647  0.0000E+00  0.0000E+00  0.8000E+01  0.8000E+01
     -7.452  0.0000E+00  0.0000E+00  0.8000E+01  0.8000E+01
     -7.258  0.0000E+00  0.0000E+00  0.8000E+01  0.8000E+01
     -7.063  0.0000E+00  0.0000E+00  0.8000E+01  0.8000E+01
     -6.868  0.0000E+00  0.0000E+00  0.8000E+01  0.8000E+01
     -6.673  0.0000E+00  0.0000E+00  0.8000E+01  0.8000E+01
     -6.479  0.0000E+00  0.0000E+00  0.8000E+01  0.8000E+01
     -6.284  0.0000E+00  0.0000E+00  0.8000E+01  0.8000E+01
     -6.089  0.0000E+00  0.0000E+00  0.8000E+01  0.8000E+01
     -5.895  0.0000E+00  0.0000E+00  0.8000E+01  0.8000E+01
     -5.700  0.0000E+00  0.0000E+00  0.8000E+01  0.8000E+01
     -5.505  0.0000E+00  0.0000E+00  0.8000E+01  0.8000E+01
     -5.311  0.0000E+00  0.0000E+00  0.8000E+01  0.8000E+01
     -5.116  0.0000E+00  0.0000E+00  0.8000E+01  0.8000E+01
     -4.921  0.0000E+00  0.0000E+00  0.8000E+01  0.8000E+01
     -4.726  0.0000E+00  0.0000E+00  0.8000E+01  0.8000E+01
     -4.532  0.0000E+00  0.0000E+00  0.8000E+01  0.8000E+01
     -4.337  0.0000E+00  0.0000E+00  0.8000E+01  0.8000E+01
     -4.142  0.0000E+00  0.0000E+00  0.8000E+01  0.8000E+01
     -3.948  0.0000E+00  0.0000E+00  0.8000E+01  0.8000E+01
     -3.753  0.0000E+00  0.0000E+00  0.8000E+01  0.8000E+01
     -3.558  0.0000E+00  0.0000E+00  0.8000E+01  0.8000E+01
     -3.363  0.0000E+00  0.0000E+00  0.8000E+01  0.8000E+01
     -3.169  0.0000E+00  0.0000E+00  0.8000E+01  0.8000E+01
     -2.974  0.0000E+00  0.0000E+00  0.8000E+01  0.8000E+01
     -2.779  0.8478E-07  0.0000E+00  0.8000E+01  0.8000E+01
     -2.585  0.1044E-04  0.2914E-07  0.8000E+01  0.8000E+01
     -2.390  0.4985E-03  0.3588E-05  0.8000E+01  0.8000E+01
     -2.195  0.1355E-01  0.1743E-03  0.8003E+01  0.8000E+01
     -2.001  0.5996E-01  0.6281E-02  0.8014E+01  0.8001E+01
     -1.806  0.1096E+00  0.4901E-01  0.8036E+01  0.8011E+01
     -1.611  0.1124E+00  0.9183E-01  0.8058E+01  0.8029E+01
     -1.416  0.1697E+00  0.1154E+00  0.8091E+01  0.8051E+01
     -1.222  0.1870E+00  0.1560E+00  0.8127E+01  0.8082E+01
     -1.027  0.1653E+00  0.1767E+00  0.8160E+01  0.8116E+01
     -0.832  0.2710E+00  0.1721E+00  0.8213E+01  0.8150E+01
     -0.638  0.2340E+00  0.2456E+00  0.8258E+01  0.8198E+01
     -0.443  0.2548E+00  0.2534E+00  0.8308E+01  0.8247E+01
     -0.248  0.3330E+00  0.2327E+00  0.8373E+01  0.8293E+01
     -0.054  0.3369E+00  0.3287E+00  0.8439E+01  0.8357E+01
      0.141  0.3683E+00  0.3282E+00  0.8511E+01  0.8421E+01
      0.336  0.3750E+00  0.3709E+00  0.8584E+01  0.8493E+01
      0.531  0.5412E+00  0.3569E+00  0.8690E+01  0.8563E+01
      0.725  0.5049E+00  0.4921E+00  0.8788E+01  0.8659E+01
      0.920  0.5767E+00  0.5479E+00  0.8901E+01  0.8766E+01
      1.115  0.8705E+00  0.5297E+00  0.9071E+01  0.8870E+01
      1.309  0.7524E+00  0.8180E+00  0.9218E+01  0.9029E+01
      1.504  0.8477E+00  0.8947E+00  0.9384E+01  0.9204E+01
      1.699  0.9500E+00  0.8819E+00  0.9570E+01  0.9377E+01
      1.893  0.1087E+01  0.1057E+01  0.9782E+01  0.9583E+01
      2.088  0.1390E+01  0.1076E+01  0.1005E+02  0.9794E+01
      2.283  0.2503E+01  0.1227E+01  0.1054E+02  0.1003E+02
      2.478  0.2703E+01  0.2020E+01  0.1107E+02  0.1043E+02
      2.672  0.2010E+01  0.2435E+01  0.1146E+02  0.1090E+02
      2.867  0.1230E+01  0.2455E+01  0.1170E+02  0.1138E+02
      3.062  0.1031E+01  0.1557E+01  0.1191E+02  0.1169E+02
      3.256  0.1432E+01  0.1150E+01  0.1219E+02  0.1191E+02
      3.451  0.2727E+01  0.1639E+01  0.1272E+02  0.1223E+02
      3.646  0.3186E+01  0.3037E+01  0.1334E+02  0.1283E+02
      3.840  0.3013E+01  0.3226E+01  0.1393E+02  0.1346E+02
      4.035  0.3119E+01  0.3131E+01  0.1454E+02  0.1407E+02
      4.230  0.2299E+01  0.3152E+01  0.1499E+02  0.1468E+02
      4.425  0.1356E+01  0.1992E+01  0.1525E+02  0.1508E+02
      4.619  0.1035E+01  0.1183E+01  0.1546E+02  0.1531E+02
      4.814  0.8437E+00  0.9546E+00  0.1562E+02  0.1550E+02
      5.009  0.7584E+00  0.8571E+00  0.1577E+02  0.1566E+02
      5.203  0.5805E+00  0.6885E+00  0.1588E+02  0.1580E+02
      5.398  0.4582E+00  0.5736E+00  0.1597E+02  0.1591E+02
      5.593  0.1210E+00  0.3620E+00  0.1600E+02  0.1598E+02
      5.787  0.8216E-02  0.8819E-01  0.1600E+02  0.1600E+02
      5.982  0.0000E+00  0.3874E-02  0.1600E+02  0.1600E+02
      6.177  0.0000E+00  0.0000E+00  0.1600E+02  0.1600E+02
      6.372  0.0000E+00  0.0000E+00  0.1600E+02  0.1600E+02
      6.566  0.0000E+00  0.0000E+00  0.1600E+02  0.1600E+02
      6.761  0.0000E+00  0.0000E+00  0.1600E+02  0.1600E+02
      6.956  0.0000E+00  0.0000E+00  0.1600E+02  0.1600E+02
      7.150  0.0000E+00  0.0000E+00  0.1600E+02  0.1600E+02
      7.345  0.0000E+00  0.0000E+00  0.1600E+02  0.1600E+02
      7.540  0.0000E+00  0.0000E+00  0.1600E+02  0.1600E+02
      7.734  0.0000E+00  0.0000E+00  0.1600E+02  0.1600E+02
      7.929  0.0000E+00  0.0000E+00  0.1600E+02  0.1600E+02
      8.124  0.0000E+00  0.0000E+00  0.1600E+02  0.1600E+02
      8.319  0.0000E+00  0.0000E+00  0.1600E+02  0.1600E+02
      8.31855135    -50.09169639  301      2.58414653      1.00000000
    -50.092  0.0000E+00  0.0000E+00  0.0000E+00  0.0000E+00  0.0000E+00  0.0000E+00  0.0000E+00  0.0000E+00  0.0000E+00  0.0000E+00  0.0000E+00  0.0000E+00  0.0000E+00  0.0000E+00  0.0000E+00  0.0000E+00  0.0000E+00  0.0000E+00
    -49.897  0.0000E+00  0.0000E+00  0.0000E+00  0.0000E+00  0.0000E+00  0.0000E+00  0.0000E+00  0.0000E+00  0.0000E+00  0.0000E+00  0.0000E+00  0.0000E+00  0.0000E+00  0.0000E+00  0.0000E+00  0.0000E+00  0.0000E+00  0.0000E+00
    -49.702  0.0000E+00  0.0000E+00  0.0000E+00  0.0000E+00  0.0000E+00  0.0000E+00  0.0000E+00  0.0000E+00  0.0000E+00  0.0000E+00  0.0000E+00  0.0000E+00  0.0000E+00  0.0000E+00  0.0000E+00  0.0000E+00  0.0000E+00  0.0000E+00
    -49.508  0.0000E+00  0.0000E+00  0.0000E+00  0.0000E+00  0.0000E+00  0.0000E+00  0.0000E+00  0.0000E+00  0.0000E+00  0.0000E+00  0.0000E+00  0.0000E+00  0.0000E+00  0.0000E+00  0.0000E+00  0.0000E+00  0.0000E+00  0.0000E+00
    -49.313  0.0000E+00  0.0000E+00  0.0000E+00  0.0000E+00  0.0000E+00  0.0000E+00  0.0000E+00  0.0000E+00  0.0000E+00  0.0000E+00  0.0000E+00  0.0000E+00  0.0000E+00  0.0000E+00  0.0000E+00  0.0000E+00  0.0000E+00  0.0000E+00
    -49.118  0.0000E+00  0.0000E+00  0.0000E+00  0.0000E+00  0.0000E+00  0.0000E+00  0.0000E+00  0.0000E+00  0.0000E+00  0.0000E+00  0.0000E+00  0.0000E+00  0.0000E+00  0.0000E+00  0.0000E+00  0.0000E+00  0.0000E+00  0.0000E+00
    -48.923  0.0000E+00  0.0000E+00  0.0000E+00  0.0000E+00  0.0000E+00  0.0000E+00  0.0000E+00  0.0000E+00  0.0000E+00  0.0000E+00  0.0000E+00  0.0000E+00  0.0000E+00  0.0000E+00  0.0000E+00  0.0000E+00  0.0000E+00  0.0000E+00
    -48.729  0.0000E+00  0.0000E+00  0.0000E+00  0.0000E+00  0.0000E+00  0.0000E+00  0.0000E+00  0.0000E+00  0.0000E+00  0.0000E+00  0.0000E+00  0.0000E+00  0.0000E+00  0.0000E+00  0.0000E+00  0.0000E+00  0.0000E+00  0.0000E+00
    -48.534  0.0000E+00  0.0000E+00  0.0000E+00  0.0000E+00  0.0000E+00  0.0000E+00  0.0000E+00  0.0000E+00  0.0000E+00  0.0000E+00  0.0000E+00  0.0000E+00  0.0000E+00  0.0000E+00  0.0000E+00  0.0000E+00  0.0000E+00  0.0000E+00
    -48.339  0.0000E+00  0.0000E+00  0.0000E+00  0.0000E+00  0.0000E+00  0.0000E+00  0.0000E+00  0.0000E+00  0.0000E+00  0.0000E+00  0.0000E+00  0.0000E+00  0.0000E+00  0.0000E+00  0.0000E+00  0.0000E+00  0.0000E+00  0.0000E+00
    -48.145  0.0000E+00  0.0000E+00  0.0000E+00  0.0000E+00  0.0000E+00  0.0000E+00  0.0000E+00  0.0000E+00  0.0000E+00  0.0000E+00  0.0000E+00  0.0000E+00  0.0000E+00  0.0000E+00  0.0000E+00  0.0000E+00  0.0000E+00  0.0000E+00
    -47.950  0.1115E-03  0.0000E+00  0.2727E-10  0.0000E+00  0.4360E-10  0.0000E+00  0.2727E-10  0.0000E+00  0.7003E-11  0.0000E+00  0.1108E-10  0.0000E+00  0.1335E-10  0.0000E+00  0.1108E-10  0.0000E+00  0.7003E-11  0.0000E+00
    -47.755  0.5356E-02  0.4512E-03  0.1310E-08  0.1080E-09  0.2095E-08  0.1740E-09  0.1310E-08  0.1080E-09  0.3365E-09  0.2799E-10  0.5326E-09  0.4303E-10  0.6415E-09  0.9090E-10  0.5326E-09  0.4303E-10  0.3365E-09  0.2799E-10
    -47.561  0.2496E+00  0.2161E-01  0.6081E-07  0.5170E-08  0.9736E-07  0.8334E-08  0.6081E-07  0.5170E-08  0.1569E-07  0.1341E-08  0.2489E-07  0.2062E-08  0.2992E-07  0.4353E-08  0.2489E-07  0.2062E-08  0.1569E-07  0.1341E-08
    -47.366  0.3417E+01  0.8724E+00  0.7825E-06  0.2056E-06  0.1275E-05  0.3329E-06  0.7825E-06  0.2056E-06  0.2149E-06  0.5417E-07  0.3514E-06  0.8396E-07  0.4133E-06  0.1748E-06  0.3514E-06  0.8396E-07  0.2149E-06  0.5417E-07
    -47.171  0.1404E+01  0.3768E+01  0.2964E-06  0.8220E-06  0.4932E-06  0.1360E-05  0.2964E-06  0.8220E-06  0.8759E-07  0.2331E-06  0.1486E-06  0.3751E-06  0.1712E-06  0.7323E-06  0.1486E-06  0.3751E-06  0.8759E-07  0.2331E-06
    -46.976  0.0000E+00  0.4445E+00  0.0000E+00  0.9040E-07  0.0000E+00  0.1522E-06  0.0000E+00  0.9040E-07  0.0000E+00  0.2721E-07  0.0000E+00  0.4518E-07  0.0000E+00  0.8395E-07  0.0000E+00  0.4518E-07  0.0000E+00  0.2721E-07
    -46.782  0.0000E+00  0.0000E+00  0.0000E+00  0.0000E+00  0.0000E+00  0.0000E+00  0.0000E+00  0.0000E+00  0.0000E+00  0.0000E+00  0.0000E+00  0.0000E+00  0.0000E+00  0.0000E+00  0.0000E+00  0.0000E+00  0.0000E+00  0.0000E+00
    -46.587  0.0000E+00  0.0000E+00  0.0000E+00  0.0000E+00  0.0000E+00  0.0000E+00  0.0000E+00  0.0000E+00  0.0000E+00  0.0000E+00  0.0000E+00  0.0000E+00  0.0000E+00  0.0000E+00  0.0000E+00  0.0000E+00  0.0000E+00  0.0000E+00
    -46.392  0.0000E+00  0.0000E+00  0.0000E+00  0.0000E+00  0.0000E+00  0.0000E+00  0.0000E+00  0.0000E+00  0.0000E+00  0.0000E+00  0.0000E+00  0.0000E+00  0.0000E+00  0.0000E+00  0.0000E+00  0.0000E+00  0.0000E+00  0.0000E+00
    -46.198  0.0000E+00  0.0000E+00  0.0000E+00  0.0000E+00  0.0000E+00  0.0000E+00  0.0000E+00  0.0000E+00  0.0000E+00  0.0000E+00  0.0000E+00  0.0000E+00  0.0000E+00  0.0000E+00  0.0000E+00  0.0000E+00  0.0000E+00  0.0000E+00
    -46.003  0.0000E+00  0.0000E+00  0.0000E+00  0.0000E+00  0.0000E+00  0.0000E+00  0.0000E+00  0.0000E+00  0.0000E+00  0.0000E+00  0.0000E+00  0.0000E+00  0.0000E+00  0.0000E+00  0.0000E+00  0.0000E+00  0.0000E+00  0.0000E+00
    -45.808  0.0000E+00  0.0000E+00  0.0000E+00  0.0000E+00  0.0000E+00  0.0000E+00  0.0000E+00  0.0000E+00  0.0000E+00  0.0000E+00  0.0000E+00  0.0000E+00  0.0000E+00  0.0000E+00  0.0000E+00  0.0000E+00  0.0000E+00  0.0000E+00
    -45.614  0.0000E+00  0.0000E+00  0.0000E+00  0.0000E+00  0.0000E+00  0.0000E+00  0.0000E+00  0.0000E+00  0.0000E+00  0.0000E+00  0.0000E+00  0.0000E+00  0.0000E+00  0.0000E+00  0.0000E+00  0.0000E+00  0.0000E+00  0.0000E+00
    -45.419  0.0000E+00  0.0000E+00  0.0000E+00  0.0000E+00  0.0000E+00  0.0000E+00  0.0000E+00  0.0000E+00  0.0000E+00  0.0000E+00  0.0000E+00  0.0000E+00  0.0000E+00  0.0000E+00  0.0000E+00  0.0000E+00  0.0000E+00  0.0000E+00
    -45.224  0.0000E+00  0.0000E+00  0.0000E+00  0.0000E+00  0.0000E+00  0.0000E+00  0.0000E+00  0.0000E+00  0.0000E+00  0.0000E+00  0.0000E+00  0.0000E+00  0.0000E+00  0.0000E+00  0.0000E+00  0.0000E+00  0.0000E+00  0.0000E+00
    -45.029  0.0000E+00  0.0000E+00  0.0000E+00  0.0000E+00  0.0000E+00  0.0000E+00  0.0000E+00  0.0000E+00  0.0000E+00  0.0000E+00  0.0000E+00  0.0000E+00  0.0000E+00  0.0000E+00  0.0000E+00  0.0000E+00  0.0000E+00  0.0000E+00
    -44.835  0.0000E+00  0.0000E+00  0.0000E+00  0.0000E+00  0.0000E+00  0.0000E+00  0.0000E+00  0.0000E+00  0.0000E+00  0.0000E+00  0.0000E+00  0.0000E+00  0.0000E+00  0.0000E+00  0.0000E+00  0.0000E+00  0.0000E+00  0.0000E+00
    -44.640  0.0000E+00  0.0000E+00  0.0000E+00  0.0000E+00  0.0000E+00  0.0000E+00  0.0000E+00  0.0000E+00  0.0000E+00  0.0000E+00  0.0000E+00  0.0000E+00  0.0000E+00  0.0000E+00  0.0000E+00  0.0000E+00  0.0000E+00  0.0000E+00
    -44.445  0.0000E+00  0.0000E+00  0.0000E+00  0.0000E+00  0.0000E+00  0.0000E+00  0.0000E+00  0.0000E+00  0.0000E+00  0.0000E+00  0.0000E+00  0.0000E+00  0.0000E+00  0.0000E+00  0.0000E+00  0.0000E+00  0.0000E+00  0.0000E+00
    -44.251  0.0000E+00  0.0000E+00  0.0000E+00  0.0000E+00  0.0000E+00  0.0000E+00  0.0000E+00  0.0000E+00  0.0000E+00  0.0000E+00  0.0000E+00  0.0000E+00  0.0000E+00  0.0000E+00  0.0000E+00  0.0000E+00  0.0000E+00  0.0000E+00
    -44.056  0.0000E+00  0.0000E+00  0.0000E+00  0.0000E+00  0.0000E+00  0.0000E+00  0.0000E+00  0.0000E+00  0.0000E+00  0.0000E+00  0.0000E+00  0.0000E+00  0.0000E+00  0.0000E+00  0.0000E+00  0.0000E+00  0.0000E+00  0.0000E+00
    -43.861  0.0000E+00  0.0000E+00  0.0000E+00  0.0000E+00  0.0000E+00  0.0000E+00  0.0000E+00  0.0000E+00  0.0000E+00  0.0000E+00  0.0000E+00  0.0000E+00  0.0000E+00  0.0000E+00  0.0000E+00  0.0000E+00  0.0000E+00  0.0000E+00
    -43.667  0.0000E+00  0.0000E+00  0.0000E+00  0.0000E+00  0.0000E+00  0.0000E+00  0.0000E+00  0.0000E+00  0.0000E+00  0.0000E+00  0.0000E+00  0.0000E+00  0.0000E+00  0.0000E+00  0.0000E+00  0.0000E+00  0.0000E+00  0.0000E+00
    -43.472  0.0000E+00  0.0000E+00  0.0000E+00  0.0000E+00  0.0000E+00  0.0000E+00  0.0000E+00  0.0000E+00  0.0000E+00  0.0000E+00  0.0000E+00  0.0000E+00  0.0000E+00  0.0000E+00  0.0000E+00  0.0000E+00  0.0000E+00  0.0000E+00
    -43.277  0.0000E+00  0.0000E+00  0.0000E+00  0.0000E+00  0.0000E+00  0.0000E+00  0.0000E+00  0.0000E+00  0.0000E+00  0.0000E+00  0.0000E+00  0.0000E+00  0.0000E+00  0.0000E+00  0.0000E+00  0.0000E+00  0.0000E+00  0.0000E+00
    -43.082  0.0000E+00  0.0000E+00  0.0000E+00  0.0000E+00  0.0000E+00  0.0000E+00  0.0000E+00  0.0000E+00  0.0000E+00  0.0000E+00  0.0000E+00  0.0000E+00  0.0000E+00  0.0000E+00  0.0000E+00  0.0000E+00  0.0000E+00  0.0000E+00
    -42.888  0.0000E+00  0.0000E+00  0.0000E+00  0.0000E+00  0.0000E+00  0.0000E+00  0.0000E+00  0.0000E+00  0.0000E+00  0.0000E+00  0.0000E+00  0.0000E+00  0.0000E+00  0.0000E+00  0.0000E+00  0.0000E+00  0.0000E+00  0.0000E+00
    -42.693  0.0000E+00  0.0000E+00  0.0000E+00  0.0000E+00  0.0000E+00  0.0000E+00  0.0000E+00  0.0000E+00  0.0000E+00  0.0000E+00  0.0000E+00  0.0000E+00  0.0000E+00  0.0000E+00  0.0000E+00  0.0000E+00  0.0000E+00  0.0000E+00
    -42.498  0.0000E+00  0.0000E+00  0.0000E+00  0.0000E+00  0.0000E+00  0.0000E+00  0.0000E+00  0.0000E+00  0.0000E+00  0.0000E+00  0.0000E+00  0.0000E+00  0.0000E+00  0.0000E+00  0.0000E+00  0.0000E+00  0.0000E+00  0.0000E+00
    -42.304  0.0000E+00  0.0000E+00  0.0000E+00  0.0000E+00  0.0000E+00  0.0000E+00  0.0000E+00  0.0000E+00  0.0000E+00  0.0000E+00  0.0000E+00  0.0000E+00  0.0000E+00  0.0000E+00  0.0000E+00  0.0000E+00  0.0000E+00  0.0000E+00
    -42.109  0.0000E+00  0.0000E+00  0.0000E+00  0.0000E+00  0.0000E+00  0.0000E+00  0.0000E+00  0.0000E+00  0.0000E+00  0.0000E+00  0.0000E+00  0.0000E+00  0.0000E+00  0.0000E+00  0.0000E+00  0.0000E+00  0.0000E+00  0.0000E+00
    -41.914  0.0000E+00  0.0000E+00  0.0000E+00  0.0000E+00  0.0000E+00  0.0000E+00  0.0000E+00  0.0000E+00  0.0000E+00  0.0000E+00  0.0000E+00  0.0000E+00  0.0000E+00  0.0000E+00  0.0000E+00  0.0000E+00  0.0000E+00  0.0000E+00
    -41.720  0.0000E+00  0.0000E+00  0.0000E+00  0.0000E+00  0.0000E+00  0.0000E+00  0.0000E+00  0.0000E+00  0.0000E+00  0.0000E+00  0.0000E+00  0.0000E+00  0.0000E+00  0.0000E+00  0.0000E+00  0.0000E+00  0.0000E+00  0.0000E+00
    -41.525  0.0000E+00  0.0000E+00  0.0000E+00  0.0000E+00  0.0000E+00  0.0000E+00  0.0000E+00  0.0000E+00  0.0000E+00  0.0000E+00  0.0000E+00  0.0000E+00  0.0000E+00  0.0000E+00  0.0000E+00  0.0000E+00  0.0000E+00  0.0000E+00
    -41.330  0.0000E+00  0.0000E+00  0.0000E+00  0.0000E+00  0.0000E+00  0.0000E+00  0.0000E+00  0.0000E+00  0.0000E+00  0.0000E+00  0.0000E+00  0.0000E+00  0.0000E+00  0.0000E+00  0.0000E+00  0.0000E+00  0.0000E+00  0.0000E+00
    -41.135  0.0000E+00  0.0000E+00  0.0000E+00  0.0000E+00  0.0000E+00  0.0000E+00  0.0000E+00  0.0000E+00  0.0000E+00  0.0000E+00  0.0000E+00  0.0000E+00  0.0000E+00  0.0000E+00  0.0000E+00  0.0000E+00  0.0000E+00  0.0000E+00
    -40.941  0.0000E+00  0.0000E+00  0.0000E+00  0.0000E+00  0.0000E+00  0.0000E+00  0.0000E+00  0.0000E+00  0.0000E+00  0.0000E+00  0.0000E+00  0.0000E+00  0.0000E+00  0.0000E+00  0.0000E+00  0.0000E+00  0.0000E+00  0.0000E+00
    -40.746  0.0000E+00  0.0000E+00  0.0000E+00  0.0000E+00  0.0000E+00  0.0000E+00  0.0000E+00  0.0000E+00  0.0000E+00  0.0000E+00  0.0000E+00  0.0000E+00  0.0000E+00  0.0000E+00  0.0000E+00  0.0000E+00  0.0000E+00  0.0000E+00
    -40.551  0.0000E+00  0.0000E+00  0.0000E+00  0.0000E+00  0.0000E+00  0.0000E+00  0.0000E+00  0.0000E+00  0.0000E+00  0.0000E+00  0.0000E+00  0.0000E+00  0.0000E+00  0.0000E+00  0.0000E+00  0.0000E+00  0.0000E+00  0.0000E+00
    -40.357  0.0000E+00  0.0000E+00  0.0000E+00  0.0000E+00  0.0000E+00  0.0000E+00  0.0000E+00  0.0000E+00  0.0000E+00  0.0000E+00  0.0000E+00  0.0000E+00  0.0000E+00  0.0000E+00  0.0000E+00  0.0000E+00  0.0000E+00  0.0000E+00