   2   2   1   0
  0.1797674E+02  0.2988017E-09  0.2988017E-09  0.4649906E-09  0.5000000E-15
  1.000000000000000E-004
  CAR 
 unknown system                          
     13.74601721    -45.64611313  301      5.77472374      1.00000000
    -45.646  0.0000E+00  0.0000E+00  0.0000E+00  0.0000E+00
    -45.448  0.0000E+00  0.0000E+00  0.0000E+00  0.0000E+00
    -45.250  0.0000E+00  0.0000E+00  0.0000E+00  0.0000E+00
    -45.052  0.0000E+00  0.0000E+00  0.0000E+00  0.0000E+00
    -44.854  0.0000E+00  0.0000E+00  0.0000E+00  0.0000E+00
    -44.656  0.0000E+00  0.0000E+00  0.0000E+00  0.0000E+00
    -44.458  0.0000E+00  0.0000E+00  0.0000E+00  0.0000E+00
    -44.260  0.0000E+00  0.0000E+00  0.0000E+00  0.0000E+00
    -44.062  0.0000E+00  0.0000E+00  0.0000E+00  0.0000E+00
    -43.864  0.0000E+00  0.0000E+00  0.0000E+00  0.0000E+00
    -43.666  0.0000E+00  0.0000E+00  0.0000E+00  0.0000E+00
    -43.468  0.5751E-05  0.4060E-05  0.1138E-05  0.8037E-06
    -43.270  0.5983E-03  0.4913E-03  0.1196E-03  0.9807E-04
    -43.072  0.3096E-01  0.2574E-01  0.6249E-02  0.5194E-02
    -42.874  0.9456E+00  0.8310E+00  0.1935E+00  0.1697E+00
    -42.677  0.5870E+01  0.5639E+01  0.1355E+01  0.1286E+01
    -42.479  0.3138E+01  0.3467E+01  0.1977E+01  0.1973E+01
    -42.281  0.6512E-01  0.8944E-01  0.2000E+01  0.2000E+01
    -42.083  0.0000E+00  0.0000E+00  0.2000E+01  0.2000E+01
    -41.885  0.0000E+00  0.0000E+00  0.2000E+01  0.2000E+01
    -41.687  0.0000E+00  0.0000E+00  0.2000E+01  0.2000E+01
    -41.489  0.0000E+00  0.0000E+00  0.2000E+01  0.2000E+01
    -41.291  0.0000E+00  0.0000E+00  0.2000E+01  0.2000E+01
    -41.093  0.0000E+00  0.0000E+00  0.2000E+01  0.2000E+01
    -40.895  0.0000E+00  0.0000E+00  0.2000E+01  0.2000E+01
    -40.697  0.0000E+00  0.0000E+00  0.2000E+01  0.2000E+01
    -40.499  0.0000E+00  0.0000E+00  0.2000E+01  0.2000E+01
    -40.301  0.0000E+00  0.0000E+00  0.2000E+01  0.2000E+01
    -40.103  0.0000E+00  0.0000E+00  0.2000E+01  0.2000E+01
    -39.905  0.0000E+00  0.0000E+00  0.2000E+01  0.2000E+01
    -39.707  0.0000E+00  0.0000E+00  0.2000E+01  0.2000E+01
    -39.509  0.0000E+00  0.0000E+00  0.2000E+01  0.2000E+01
    -39.311  0.0000E+00  0.0000E+00  0.2000E+01  0.2000E+01
    -39.113  0.0000E+00  0.0000E+00  0.2000E+01  0.2000E+01
    -38.915  0.0000E+00  0.0000E+00  0.2000E+01  0.2000E+01
    -38.717  0.0000E+00  0.0000E+00  0.2000E+01  0.2000E+01
    -38.519  0.0000E+00  0.0000E+00  0.2000E+01  0.2000E+01
    -38.321  0.0000E+00  0.0000E+00  0.2000E+01  0.2000E+01
    -38.123  0.0000E+00  0.0000E+00  0.2000E+01  0.2000E+01
    -37.925  0.0000E+00  0.0000E+00  0.2000E+01  0.2000E+01
    -37.727  0.0000E+00  0.0000E+00  0.2000E+01  0.2000E+01
    -37.529  0.0000E+00  0.0000E+00  0.2000E+01  0.2000E+01
    -37.331  0.0000E+00  0.0000E+00  0.2000E+01  0.2000E+01
    -37.133  0.0000E+00  0.0000E+00  0.2000E+01  0.2000E+01
    -36.935  0.0000E+00  0.0000E+00  0.2000E+01  0.2000E+01
    -36.737  0.0000E+00  0.0000E+00  0.2000E+01  0.2000E+01
    -36.539  0.0000E+00  0.0000E+00  0.2000E+01  0.2000E+01
    -36.341  0.0000E+00  0.0000E+00  0.2000E+01  0.2000E+01
    -36.143  0.0000E+00  0.0000E+00  0.2000E+01  0.2000E+01
    -35.945  0.0000E+00  0.0000E+00  0.2000E+01  0.2000E+01
    -35.747  0.0000E+00  0.0000E+00  0.2000E+01  0.2000E+01
    -35.549  0.0000E+00  0.0000E+00  0.2000E+01  0.2000E+01
    -35.351  0.0000E+00  0.0000E+00  0.2000E+01  0.2000E+01
    -35.154  0.0000E+00  0.0000E+00  0.2000E+01  0.2000E+01
    -34.956  0.0000E+00  0.0000E+00  0.2000E+01  0.2000E+01
    -34.758  0.0000E+00  0.0000E+00  0.2000E+01  0.2000E+01
    -34.560  0.0000E+00  0.0000E+00  0.2000E+01  0.2000E+01
    -34.362  0.0000E+00  0.0000E+00  0.2000E+01  0.2000E+01
    -34.164  0.0000E+00  0.0000E+00  0.2000E+01  0.2000E+01
    -33.966  0.0000E+00  0.0000E+00  0.2000E+01  0.2000E+01
    -33.768  0.0000E+00  0.0000E+00  0.2000E+01  0.2000E+01
    -33.570  0.0000E+00  0.0000E+00  0.2000E+01  0.2000E+01
    -33.372  0.0000E+00  0.0000E+00  0.2000E+01  0.2000E+01
    -33.174  0.0000E+00  0.0000E+00  0.2000E+01  0.2000E+01
    -32.976  0.0000E+00  0.0000E+00  0.2000E+01  0.2000E+01
    -32.778  0.0000E+00  0.0000E+00  0.2000E+01  0.2000E+01
    -32.580  0.0000E+00  0.0000E+00  0.2000E+01  0.2000E+01
    -32.382  0.0000E+00  0.0000E+00  0.2000E+01  0.2000E+01
    -32.184  0.0000E+00  0.0000E+00  0.2000E+01  0.2000E+01
    -31.986  0.0000E+00  0.0000E+00  0.2000E+01  0.2000E+01
    -31.788  0.0000E+00  0.0000E+00  0.2000E+01  0.2000E+01
    -31.590  0.0000E+00  0.0000E+00  0.2000E+01  0.2000E+01
    -31.392  0.0000E+00  0.0000E+00  0.2000E+01  0.2000E+01
    -31.194  0.0000E+00  0.0000E+00  0.2000E+01  0.2000E+01
    -30.996  0.0000E+00  0.0000E+00  0.2000E+01  0.2000E+01
    -30.798  0.0000E+00  0.0000E+00  0.2000E+01  0.2000E+01
    -30.600  0.0000E+00  0.0000E+00  0.2000E+01  0.2000E+01
    -30.402  0.0000E+00  0.0000E+00  0.2000E+01  0.2000E+01
    -30.204  0.0000E+00  0.0000E+00  0.2000E+01  0.2000E+01
    -30.006  0.0000E+00  0.0000E+00  0.2000E+01  0.2000E+01
    -29.808  0.0000E+00  0.0000E+00  0.2000E+01  0.2000E+01
    -29.610  0.0000E+00  0.0000E+00  0.2000E+01  0.2000E+01
    -29.412  0.0000E+00  0.0000E+00  0.2000E+01  0.2000E+01
    -29.214  0.0000E+00  0.0000E+00  0.2000E+01  0.2000E+01
    -29.016  0.0000E+00  0.0000E+00  0.2000E+01  0.2000E+01
    -28.818  0.0000E+00  0.0000E+00  0.2000E+01  0.2000E+01
    -28.620  0.0000E+00  0.0000E+00  0.2000E+01  0.2000E+01
    -28.422  0.0000E+00  0.0000E+00  0.2000E+01  0.2000E+01
    -28.224  0.0000E+00  0.0000E+00  0.2000E+01  0.2000E+01
    -28.026  0.0000E+00  0.0000E+00  0.2000E+01  0.2000E+01
    -27.828  0.0000E+00  0.0000E+00  0.2000E+01  0.2000E+01
    -27.631  0.0000E+00  0.0000E+00  0.2000E+01  0.2000E+01
    -27.433  0.0000E+00  0.0000E+00  0.2000E+01  0.2000E+01
    -27.235  0.0000E+00  0.0000E+00  0.2000E+01  0.2000E+01
    -27.037  0.0000E+00  0.0000E+00  0.2000E+01  0.2000E+01
    -26.839  0.0000E+00  0.0000E+00  0.2000E+01  0.2000E+01
    -26.641  0.0000E+00  0.0000E+00  0.2000E+01  0.2000E+01
    -26.443  0.0000E+00  0.0000E+00  0.2000E+01  0.2000E+01
    -26.245  0.0000E+00  0.0000E+00  0.2000E+01  0.2000E+01
    -26.047  0.0000E+00  0.0000E+00  0.2000E+01  0.2000E+01
    -25.849  0.0000E+00  0.0000E+00  0.2000E+01  0.2000E+01
    -25.651  0.0000E+00  0.0000E+00  0.2000E+01  0.2000E+01
    -25.453  0.0000E+00  0.0000E+00  0.2000E+01  0.2000E+01
    -25.255  0.0000E+00  0.0000E+00  0.2000E+01  0.2000E+01
    -25.057  0.0000E+00  0.0000E+00  0.2000E+01  0.2000E+01
    -24.859  0.0000E+00  0.0000E+00  0.2000E+01  0.2000E+01
    -24.661  0.0000E+00  0.0000E+00  0.2000E+01  0.2000E+01
    -24.463  0.0000E+00  0.0000E+00  0.2000E+01  0.2000E+01
    -24.265  0.0000E+00  0.0000E+00  0.2000E+01  0.2000E+01
    -24.067  0.0000E+00  0.0000E+00  0.2000E+01  0.2000E+01
    -23.869  0.0000E+00  0.0000E+00  0.2000E+01  0.2000E+01
    -23.671  0.0000E+00  0.0000E+00  0.2000E+01  0.2000E+01
    -23.473  0.0000E+00  0.0000E+00  0.2000E+01  0.2000E+01
    -23.275  0.0000E+00  0.0000E+00  0.2000E+01  0.2000E+01
    -23.077  0.0000E+00  0.0000E+00  0.2000E+01  0.2000E+01
    -22.879  0.0000E+00  0.0000E+00  0.2000E+01  0.2000E+01
    -22.681  0.1485E-05  0.1116E-05  0.2000E+01  0.2000E+01
    -22.483  0.2826E-03  0.2290E-03  0.2000E+01  0.2000E+01
    -22.285  0.1476E-01  0.1212E-01  0.2003E+01  0.2002E+01
    -22.087  0.5202E+00  0.4462E+00  0.2106E+01  0.2091E+01
    -21.889  0.3753E+01  0.3573E+01  0.2849E+01  0.2798E+01
    -21.691  0.4162E+01  0.4235E+01  0.3673E+01  0.3637E+01
    -21.493  0.4129E+01  0.4063E+01  0.4496E+01  0.4446E+01
    -21.295  0.6733E+01  0.6581E+01  0.5832E+01  0.5752E+01
    -21.097  0.8473E+01  0.8583E+01  0.7514E+01  0.7455E+01
    -20.899  0.2331E+01  0.2610E+01  0.7982E+01  0.7978E+01
    -20.701  0.5222E-01  0.6757E-01  0.8000E+01  0.8000E+01
    -20.503  0.0000E+00  0.0000E+00  0.8000E+01  0.8000E+01
    -20.305  0.0000E+00  0.0000E+00  0.8000E+01  0.8000E+01
    -20.107  0.0000E+00  0.0000E+00  0.8000E+01  0.8000E+01
    -19.910  0.0000E+00  0.0000E+00  0.8000E+01  0.8000E+01
    -19.712  0.0000E+00  0.0000E+00  0.8000E+01  0.8000E+01
    -19.514  0.0000E+00  0.0000E+00  0.8000E+01  0.8000E+01
    -19.316  0.0000E+00  0.0000E+00  0.8000E+01  0.8000E+01
    -19.118  0.0000E+00  0.0000E+00  0.8000E+01  0.8000E+01
    -18.920  0.0000E+00  0.0000E+00  0.8000E+01  0.8000E+01
    -18.722  0.0000E+00  0.0000E+00  0.8000E+01  0.8000E+01
    -18.524  0.0000E+00  0.0000E+00  0.8000E+01  0.8000E+01
    -18.326  0.0000E+00  0.0000E+00  0.8000E+01  0.8000E+01
    -18.128  0.0000E+00  0.0000E+00  0.8000E+01  0.8000E+01
    -17.930  0.0000E+00  0.0000E+00  0.8000E+01  0.8000E+01
    -17.732  0.0000E+00  0.0000E+00  0.8000E+01  0.8000E+01
    -17.534  0.0000E+00  0.0000E+00  0.8000E+01  0.8000E+01
    -17.336  0.0000E+00  0.0000E+00  0.8000E+01  0.8000E+01
    -17.138  0.0000E+00  0.0000E+00  0.8000E+01  0.8000E+01
    -16.940  0.0000E+00  0.0000E+00  0.8000E+01  0.8000E+01
    -16.742  0.0000E+00  0.0000E+00  0.8000E+01  0.8000E+01
    -16.544  0.0000E+00  0.0000E+00  0.8000E+01  0.8000E+01
    -16.346  0.0000E+00  0.0000E+00  0.8000E+01  0.8000E+01
    -16.148  0.0000E+00  0.0000E+00  0.8000E+01  0.8000E+01
    -15.950  0.0000E+00  0.0000E+00  0.8000E+01  0.8000E+01
    -15.752  0.0000E+00  0.0000E+00  0.8000E+01  0.8000E+01
    -15.554  0.0000E+00  0.0000E+00  0.8000E+01  0.8000E+01
    -15.356  0.0000E+00  0.0000E+00  0.8000E+01  0.8000E+01
    -15.158  0.0000E+00  0.0000E+00  0.8000E+01  0.8000E+01
    -14.960  0.0000E+00  0.0000E+00  0.8000E+01  0.8000E+01
    -14.762  0.0000E+00  0.0000E+00  0.8000E+01  0.8000E+01
    -14.564  0.0000E+00  0.0000E+00  0.8000E+01  0.8000E+01
    -14.366  0.0000E+00  0.0000E+00  0.8000E+01  0.8000E+01
    -14.168  0.0000E+00  0.0000E+00  0.8000E+01  0.8000E+01
    -13.970  0.0000E+00  0.0000E+00  0.8000E+01  0.8000E+01
    -13.772  0.0000E+00  0.0000E+00  0.8000E+01  0.8000E+01
    -13.574  0.0000E+00  0.0000E+00  0.8000E+01  0.8000E+01
    -13.376  0.0000E+00  0.0000E+00  0.8000E+01  0.8000E+01
    -13.178  0.0000E+00  0.0000E+00  0.8000E+01  0.8000E+01
    -12.980  0.0000E+00  0.0000E+00  0.8000E+01  0.8000E+01
    -12.782  0.0000E+00  0.0000E+00  0.8000E+01  0.8000E+01
    -12.584  0.0000E+00  0.0000E+00  0.8000E+01  0.8000E+01
    -12.387  0.0000E+00  0.0000E+00  0.8000E+01  0.8000E+01
    -12.189  0.0000E+00  0.0000E+00  0.8000E+01  0.8000E+01
    -11.991  0.0000E+00  0.0000E+00  0.8000E+01  0.8000E+01
    -11.793  0.0000E+00  0.0000E+00  0.8000E+01  0.8000E+01
    -11.595  0.0000E+00  0.0000E+00  0.8000E+01  0.8000E+01
    -11.397  0.0000E+00  0.0000E+00  0.8000E+01  0.8000E+01
    -11.199  0.0000E+00  0.0000E+00  0.8000E+01  0.8000E+01
    -11.001  0.0000E+00  0.0000E+00  0.8000E+01  0.8000E+01
    -10.803  0.0000E+00  0.0000E+00  0.8000E+01  0.8000E+01
    -10.605  0.0000E+00  0.0000E+00  0.8000E+01  0.8000E+01
    -10.407  0.0000E+00  0.0000E+00  0.8000E+01  0.8000E+01
    -10.209  0.0000E+00  0.0000E+00  0.8000E+01  0.8000E+01
    -10.011  0.0000E+00  0.0000E+00  0.8000E+01  0.8000E+01
     -9.813  0.0000E+00  0.0000E+00  0.8000E+01  0.8000E+01
     -9.615  0.0000E+00  0.0000E+00  0.8000E+01  0.8000E+01
     -9.417  0.0000E+00  0.0000E+00  0.8000E+01  0.8000E+01
     -9.219  0.0000E+00  0.0000E+00  0.8000E+01  0.8000E+01
     -9.021  0.0000E+00  0.0000E+00  0.8000E+01  0.8000E+01
     -8.823  0.0000E+00  0.0000E+00  0.8000E+01  0.8000E+01
     -8.625  0.0000E+00  0.0000E+00  0.8000E+01  0.8000E+01
     -8.427  0.0000E+00  0.0000E+00  0.8000E+01  0.8000E+01
     -8.229  0.0000E+00  0.0000E+00  0.8000E+01  0.8000E+01
     -8.031  0.0000E+00  0.0000E+00  0.8000E+01  0.8000E+01
     -7.833  0.0000E+00  0.0000E+00  0.8000E+01  0.8000E+01
     -7.635  0.0000E+00  0.0000E+00  0.8000E+01  0.8000E+01
     -7.437  0.0000E+00  0.0000E+00  0.8000E+01  0.8000E+01
     -7.239  0.0000E+00  0.0000E+00  0.8000E+01  0.8000E+01
     -7.041  0.0000E+00  0.0000E+00  0.8000E+01  0.8000E+01
     -6.843  0.0000E+00  0.0000E+00  0.8000E+01  0.8000E+01
     -6.645  0.0000E+00  0.0000E+00  0.8000E+01  0.8000E+01
     -6.447  0.0000E+00  0.0000E+00  0.8000E+01  0.8000E+01
     -6.249  0.0000E+00  0.0000E+00  0.8000E+01  0.8000E+01
     -6.051  0.0000E+00  0.0000E+00  0.8000E+01  0.8000E+01
     -5.853  0.0000E+00  0.0000E+00  0.8000E+01  0.8000E+01
     -5.655  0.0000E+00  0.0000E+00  0.8000E+01  0.8000E+01
     -5.457  0.0000E+00  0.0000E+00  0.8000E+01  0.8000E+01
     -5.259  0.0000E+00  0.0000E+00  0.8000E+01  0.8000E+01
     -5.061  0.0000E+00  0.0000E+00  0.8000E+01  0.8000E+01
     -4.864  0.0000E+00  0.0000E+00  0.8000E+01  0.8000E+01
     -4.666  0.0000E+00  0.0000E+00  0.8000E+01  0.8000E+01
     -4.468  0.0000E+00  0.0000E+00  0.8000E+01  0.8000E+01
     -4.270  0.0000E+00  0.0000E+00  0.8000E+01  0.8000E+01
     -4.072  0.0000E+00  0.0000E+00  0.8000E+01  0.8000E+01
     -3.874  0.0000E+00  0.0000E+00  0.8000E+01  0.8000E+01
     -3.676  0.0000E+00  0.0000E+00  0.8000E+01  0.8000E+01
     -3.478  0.0000E+00  0.0000E+00  0.8000E+01  0.8000E+01
     -3.280  0.0000E+00  0.0000E+00  0.8000E+01  0.8000E+01
     -3.082  0.0000E+00  0.0000E+00  0.8000E+01  0.8000E+01
     -2.884  0.0000E+00  0.0000E+00  0.8000E+01  0.8000E+01
     -2.686  0.0000E+00  0.0000E+00  0.8000E+01  0.8000E+01
     -2.488  0.0000E+00  0.0000E+00  0.8000E+01  0.8000E+01
     -2.290  0.0000E+00  0.0000E+00  0.8000E+01  0.8000E+01
     -2.092  0.0000E+00  0.0000E+00  0.8000E+01  0.8000E+01
     -1.894  0.0000E+00  0.0000E+00  0.8000E+01  0.8000E+01
     -1.696  0.0000E+00  0.0000E+00  0.8000E+01  0.8000E+01
     -1.498  0.0000E+00  0.0000E+00  0.8000E+01  0.8000E+01
     -1.300  0.0000E+00  0.0000E+00  0.8000E+01  0.8000E+01
     -1.102  0.0000E+00  0.0000E+00  0.8000E+01  0.8000E+01
     -0.904  0.0000E+00  0.0000E+00  0.8000E+01  0.8000E+01
     -0.706  0.0000E+00  0.0000E+00  0.8000E+01  0.8000E+01
     -0.508  0.0000E+00  0.0000E+00  0.8000E+01  0.8000E+01
     -0.310  0.1000E-06  0.6438E-07  0.8000E+01  0.8000E+01
     -0.112  0.7148E-05  0.4604E-05  0.8000E+01  0.8000E+01
      0.086  0.3622E-03  0.2379E-03  0.8000E+01  0.8000E+01
      0.284  0.7215E-02  0.5576E-02  0.8002E+01  0.8001E+01
      0.482  0.3672E-01  0.3297E-01  0.8009E+01  0.8008E+01
      0.680  0.3856E-01  0.3966E-01  0.8016E+01  0.8016E+01
      0.878  0.8377E-01  0.7679E-01  0.8033E+01  0.8031E+01
      1.076  0.7192E-01  0.7700E-01  0.8047E+01  0.8046E+01
      1.274  0.7380E-01  0.6856E-01  0.8062E+01  0.8060E+01
      1.472  0.1320E+00  0.1300E+00  0.8088E+01  0.8086E+01
      1.670  0.1085E+00  0.1051E+00  0.8110E+01  0.8106E+01
      1.868  0.1475E+00  0.1554E+00  0.8139E+01  0.8137E+01
      2.066  0.1023E+00  0.9804E-01  0.8159E+01  0.8157E+01
      2.264  0.2148E+00  0.2023E+00  0.8202E+01  0.8197E+01
      2.462  0.2077E+00  0.2129E+00  0.8243E+01  0.8239E+01
      2.659  0.1676E+00  0.1699E+00  0.8277E+01  0.8273E+01
      2.857  0.2321E+00  0.2255E+00  0.8323E+01  0.8318E+01
      3.055  0.2926E+00  0.2819E+00  0.8381E+01  0.8373E+01
      3.253  0.3667E+00  0.3622E+00  0.8453E+01  0.8445E+01
      3.451  0.4441E+00  0.4439E+00  0.8542E+01  0.8534E+01
      3.649  0.5176E+00  0.4798E+00  0.8644E+01  0.8629E+01
      3.847  0.1017E+01  0.1004E+01  0.8846E+01  0.8828E+01
      4.045  0.8933E+00  0.9040E+00  0.9024E+01  0.9008E+01
      4.243  0.8962E+00  0.8953E+00  0.9202E+01  0.9186E+01
      4.441  0.1149E+01  0.1111E+01  0.9430E+01  0.9407E+01
      4.639  0.1251E+01  0.1271E+01  0.9679E+01  0.9660E+01
      4.837  0.1260E+01  0.1253E+01  0.9929E+01  0.9909E+01
      5.035  0.1066E+01  0.1084E+01  0.1014E+02  0.1012E+02
      5.233  0.9095E+00  0.8987E+00  0.1032E+02  0.1030E+02
      5.431  0.1078E+01  0.1034E+01  0.1054E+02  0.1051E+02
      5.629  0.1336E+01  0.1330E+01  0.1080E+02  0.1077E+02
      5.827  0.1554E+01  0.1507E+01  0.1111E+02  0.1107E+02
      6.025  0.1665E+01  0.1691E+01  0.1144E+02  0.1141E+02
      6.223  0.1153E+01  0.1231E+01  0.1167E+02  0.1165E+02
      6.421  0.6865E+00  0.7106E+00  0.1181E+02  0.1180E+02
      6.619  0.5991E+00  0.5973E+00  0.1193E+02  0.1192E+02
      6.817  0.7337E+00  0.7212E+00  0.1207E+02  0.1206E+02
      7.015  0.1301E+01  0.1247E+01  0.1233E+02  0.1231E+02
      7.213  0.1673E+01  0.1679E+01  0.1266E+02  0.1264E+02
      7.411  0.1863E+01  0.1848E+01  0.1303E+02  0.1301E+02
      7.609  0.1639E+01  0.1650E+01  0.1336E+02  0.1333E+02
      7.807  0.2059E+01  0.2039E+01  0.1377E+02  0.1374E+02
      8.005  0.2013E+01  0.2014E+01  0.1417E+02  0.1414E+02
      8.203  0.2002E+01  0.2038E+01  0.1457E+02  0.1455E+02
      8.401  0.1402E+01  0.1435E+01  0.1485E+02  0.1483E+02
      8.599  0.1089E+01  0.1105E+01  0.1506E+02  0.1505E+02
      8.797  0.7137E+00  0.7302E+00  0.1521E+02  0.1520E+02
      8.995  0.5572E+00  0.5613E+00  0.1532E+02  0.1531E+02
      9.193  0.5170E+00  0.5176E+00  0.1542E+02  0.1541E+02
      9.391  0.4474E+00  0.4619E+00  0.1551E+02  0.1551E+02
      9.589  0.4470E+00  0.4476E+00  0.1560E+02  0.1559E+02
      9.787  0.4052E+00  0.4049E+00  0.1568E+02  0.1567E+02
      9.985  0.3726E+00  0.3701E+00  0.1575E+02  0.1575E+02
     10.182  0.2829E+00  0.2931E+00  0.1581E+02  0.1581E+02
     10.380  0.3150E+00  0.3200E+00  0.1587E+02  0.1587E+02
     10.578  0.2625E+00  0.2511E+00  0.1592E+02  0.1592E+02
     10.776  0.2494E+00  0.2657E+00  0.1597E+02  0.1597E+02
     10.974  0.9382E-01  0.8821E-01  0.1599E+02  0.1599E+02
     11.172  0.3336E-01  0.4439E-01  0.1600E+02  0.1600E+02
     11.370  0.4503E-03  0.2261E-02  0.1600E+02  0.1600E+02
     11.568  0.0000E+00  0.0000E+00  0.1600E+02  0.1600E+02
     11.766  0.0000E+00  0.0000E+00  0.1600E+02  0.1600E+02
     11.964  0.0000E+00  0.0000E+00  0.1600E+02  0.1600E+02
     12.162  0.0000E+00  0.0000E+00  0.1600E+02  0.1600E+02
     12.360  0.0000E+00  0.0000E+00  0.1600E+02  0.1600E+02
     12.558  0.0000E+00  0.0000E+00  0.1600E+02  0.1600E+02
     12.756  0.0000E+00  0.0000E+00  0.1600E+02  0.1600E+02
     12.954  0.0000E+00  0.0000E+00  0.1600E+02  0.1600E+02
     13.152  0.0000E+00  0.0000E+00  0.1600E+02  0.1600E+02
     13.350  0.0000E+00  0.0000E+00  0.1600E+02  0.1600E+02
     13.548  0.0000E+00  0.0000E+00  0.1600E+02  0.1600E+02
     13.746  0.0000E+00  0.0000E+00  0.1600E+02  0.1600E+02
     13.74601721    -45.64611313  301      5.77472374      1.00000000
    -45.646  0.0000E+00  0.0000E+00  0.0000E+00  0.0000E+00  0.0000E+00  0.0000E+00  0.0000E+00  0.0000E+00  0.0000E+00  0.0000E+00  0.0000E+00  0.0000E+00  0.0000E+00  0.0000E+00  0.0000E+00  0.0000E+00  0.0000E+00  0.0000E+00
    -45.448  0.0000E+00  0.0000E+00  0.0000E+00  0.0000E+00  0.0000E+00  0.0000E+00  0.0000E+00  0.0000E+00  0.0000E+00  0.0000E+00  0.0000E+00  0.0000E+00  0.0000E+00  0.0000E+00  0.0000E+00  0.0000E+00  0.0000E+00  0.0000E+00
    -45.250  0.0000E+00  0.0000E+00  0.0000E+00  0.0000E+00  0.0000E+00  0.0000E+00  0.0000E+00  0.0000E+00  0.0000E+00  0.0000E+00  0.0000E+00  0.0000E+00  0.0000E+00  0.0000E+00  0.0000E+00  0.0000E+00  0.0000E+00  0.0000E+00
    -45.052  0.0000E+00  0.0000E+00  0.0000E+00  0.0000E+00  0.0000E+00  0.0000E+00  0.0000E+00  0.0000E+00  0.0000E+00  0.0000E+00  0.0000E+00  0.0000E+00  0.0000E+00  0.0000E+00  0.0000E+00  0.0000E+00  0.0000E+00  0.0000E+00
    -44.854  0.0000E+00  0.0000E+00  0.0000E+00  0.0000E+00  0.0000E+00  0.0000E+00  0.0000E+00  0.0000E+00  0.0000E+00  0.0000E+00  0.0000E+00  0.0000E+00  0.0000E+00  0.0000E+00  0.0000E+00  0.0000E+00  0.0000E+00  0.0000E+00
    -44.656  0.0000E+00  0.0000E+00  0.0000E+00  0.0000E+00  0.0000E+00  0.0000E+00  0.0000E+00  0.0000E+00  0.0000E+00  0.0000E+00  0.0000E+00  0.0000E+00  0.0000E+00  0.0000E+00  0.0000E+00  0.0000E+00  0.0000E+00  0.0000E+00
    -44.458  0.0000E+00  0.0000E+00  0.0000E+00  0.0000E+00  0.0000E+00  0.0000E+00  0.0000E+00  0.0000E+00  0.0000E+00  0.0000E+00  0.0000E+00  0.0000E+00  0.0000E+00  0.0000E+00  0.0000E+00  0.0000E+00  0.0000E+00  0.0000E+00
    -44.260  0.0000E+00  0.0000E+00  0.0000E+00  0.0000E+00  0.0000E+00  0.0000E+00  0.0000E+00  0.0000E+00  0.0000E+00  0.0000E+00  0.0000E+00  0.0000E+00  0.0000E+00  0.0000E+00  0.0000E+00  0.0000E+00  0.0000E+00  0.0000E+00
    -44.062  0.0000E+00  0.0000E+00  0.0000E+00  0.0000E+00  0.0000E+00  0.0000E+00  0.0000E+00  0.0000E+00  0.0000E+00  0.0000E+00  0.0000E+00  0.0000E+00  0.0000E+00  0.0000E+00  0.0000E+00  0.0000E+00  0.0000E+00  0.0000E+00
    -43.864  0.0000E+00  0.0000E+00  0.0000E+00  0.0000E+00  0.0000E+00  0.0000E+00  0.0000E+00  0.0000E+00  0.0000E+00  0.0000E+00  0.0000E+00  0.0000E+00  0.0000E+00  0.0000E+00  0.0000E+00  0.0000E+00  0.0000E+00  0.0000E+00
    -43.666  0.0000E+00  0.0000E+00  0.0000E+00  0.0000E+00  0.0000E+00  0.0000E+00  0.0000E+00  0.0000E+00  0.0000E+00  0.0000E+00  0.0000E+00  0.0000E+00  0.0000E+00  0.0000E+00  0.0000E+00  0.0000E+00  0.0000E+00  0.0000E+00
    -43.468  0.2850E-05  0.2012E-05  0.6739E-10  0.4314E-10  0.8470E-10  0.5270E-10  0.6739E-10  0.4314E-10  0.2524E-11  0.1468E-11  0.1368E-11  0.8108E-12  0.1262E-10  0.8697E-11  0.1368E-11  0.8108E-12  0.2524E-11  0.1468E-11
    -43.270  0.2970E-03  0.2439E-03  0.8992E-08  0.7439E-08  0.1167E-07  0.9637E-08  0.8992E-08  0.7439E-08  0.9501E-09  0.7842E-09  0.9045E-09  0.7205E-09  0.1856E-08  0.1526E-08  0.9045E-09  0.7205E-09  0.9501E-09  0.7842E-09
    -43.072  0.1537E-01  0.1278E-01  0.4605E-06  0.3820E-06  0.5970E-06  0.4953E-06  0.4605E-06  0.3820E-06  0.4953E-07  0.4129E-07  0.4744E-07  0.3930E-07  0.9583E-07  0.8004E-07  0.4744E-07  0.3930E-07  0.4953E-07  0.4129E-07
    -42.874  0.4698E+00  0.4129E+00  0.1493E-04  0.1309E-04  0.1976E-04  0.1729E-04  0.1493E-04  0.1309E-04  0.2036E-05  0.1749E-05  0.2078E-05  0.1762E-05  0.3351E-05  0.2917E-05  0.2078E-05  0.1762E-05  0.2036E-05  0.1749E-05
    -42.677  0.2922E+01  0.2807E+01  0.6293E-04  0.6226E-04  0.9467E-04  0.9298E-04  0.6293E-04  0.6226E-04  0.1742E-04  0.1683E-04  0.2394E-04  0.2267E-04  0.2602E-04  0.2501E-04  0.2394E-04  0.2267E-04  0.1742E-04  0.1683E-04
    -42.479  0.1564E+01  0.1728E+01  0.1841E-04  0.2077E-04  0.3100E-04  0.3495E-04  0.1841E-04  0.2077E-04  0.7654E-05  0.8583E-05  0.1349E-04  0.1497E-04  0.1287E-04  0.1436E-04  0.1349E-04  0.1497E-04  0.7654E-05  0.8583E-05
    -42.281  0.3248E-01  0.4461E-01  0.2276E-06  0.2891E-06  0.2455E-06  0.4000E-06  0.2276E-06  0.2891E-06  0.1035E-06  0.1414E-06  0.1715E-06  0.2873E-06  0.1692E-06  0.2827E-06  0.1715E-06  0.2873E-06  0.1035E-06  0.1414E-06
    -42.083  0.0000E+00  0.0000E+00  0.0000E+00  0.0000E+00  0.0000E+00  0.0000E+00  0.0000E+00  0.0000E+00  0.0000E+00  0.0000E+00  0.0000E+00  0.0000E+00  0.0000E+00  0.0000E+00  0.0000E+00  0.0000E+00  0.0000E+00  0.0000E+00
    -41.885  0.0000E+00  0.0000E+00  0.0000E+00  0.0000E+00  0.0000E+00  0.0000E+00  0.0000E+00  0.0000E+00  0.0000E+00  0.0000E+00  0.0000E+00  0.0000E+00  0.0000E+00  0.0000E+00  0.0000E+00  0.0000E+00  0.0000E+00  0.0000E+00
    -41.687  0.0000E+00  0.0000E+00  0.0000E+00  0.0000E+00  0.0000E+00  0.0000E+00  0.0000E+00  0.0000E+00  0.0000E+00  0.0000E+00  0.0000E+00  0.0000E+00  0.0000E+00  0.0000E+00  0.0000E+00  0.0000E+00  0.0000E+00  0.0000E+00
    -41.489  0.0000E+00  0.0000E+00  0.0000E+00  0.0000E+00  0.0000E+00  0.0000E+00  0.0000E+00  0.0000E+00  0.0000E+00  0.0000E+00  0.0000E+00  0.0000E+00  0.0000E+00  0.0000E+00  0.0000E+00  0.0000E+00  0.0000E+00  0.0000E+00
    -41.291  0.0000E+00  0.0000E+00  0.0000E+00  0.0000E+00  0.0000E+00  0.0000E+00  0.0000E+00  0.0000E+00  0.0000E+00  0.0000E+00  0.0000E+00  0.0000E+00  0.0000E+00  0.0000E+00  0.0000E+00  0.0000E+00  0.0000E+00  0.0000E+00
    -41.093  0.0000E+00  0.0000E+00  0.0000E+00  0.0000E+00  0.0000E+00  0.0000E+00  0.0000E+00  0.0000E+00  0.0000E+00  0.0000E+00  0.0000E+00  0.0000E+00  0.0000E+00  0.0000E+00  0.0000E+00  0.0000E+00  0.0000E+00  0.0000E+00
    -40.895  0.0000E+00  0.0000E+00  0.0000E+00  0.0000E+00  0.0000E+00  0.0000E+00  0.0000E+00  0.0000E+00  0.0000E+00  0.0000E+00  0.0000E+00  0.0000E+00  0.0000E+00  0.0000E+00  0.0000E+00  0.0000E+00  0.0000E+00  0.0000E+00
    -40.697  0.0000E+00  0.0000E+00  0.0000E+00  0.0000E+00  0.0000E+00  0.0000E+00  0.0000E+00  0.0000E+00  0.0000E+00  0.0000E+00  0.0000E+00  0.0000E+00  0.0000E+00  0.0000E+00  0.0000E+00  0.0000E+00  0.0000E+00  0.0000E+00
    -40.499  0.0000E+00  0.0000E+00  0.0000E+00  0.0000E+00  0.0000E+00  0.0000E+00  0.0000E+00  0.0000E+00  0.0000E+00  0.0000E+00  0.0000E+00  0.0000E+00  0.0000E+00  0.0000E+00  0.0000E+00  0.0000E+00  0.0000E+00  0.0000E+00
    -40.301  0.0000E+00  0.0000E+00  0.0000E+00  0.0000E+00  0.0000E+00  0.0000E+00  0.0000E+00  0.0000E+00  0.0000E+00  0.0000E+00  0.0000E+00  0.0000E+00  0.0000E+00  0.0000E+00  0.0000E+00  0.0000E+00  0.0000E+00  0.0000E+00
    -40.103  0.0000E+00  0.0000E+00  0.0000E+00  0.0000E+00  0.0000E+00  0.0000E+00  0.0000E+00  0.0000E+00  0.0000E+00  0.0000E+00  0.0000E+00  0.0000E+00  0.0000E+00  0.0000E+00  0.0000E+00  0.0000E+00  0.0000E+00  0.0000E+00
    -39.905  0.0000E+00  0.0000E+00  0.0000E+00  0.0000E+00  0.0000E+00  0.0000E+00  0.0000E+00  0.0000E+00  0.0000E+00  0.0000E+00  0.0000E+00  0.0000E+00  0.0000E+00  0.0000E+00  0.0000E+00  0.0000E+00  0.0000E+00  0.0000E+00
    -39.707  0.0000E+00  0.0000E+00  0.0000E+00  0.0000E+00  0.0000E+00  0.0000E+00  0.0000E+00  0.0000E+00  0.0000E+00  0.0000E+00  0.0000E+00  0.0000E+00  0.0000E+00  0.0000E+00  0.0000E+00  0.0000E+00  0.0000E+00  0.0000E+00
    -39.509  0.0000E+00  0.0000E+00  0.0000E+00  0.0000E+00  0.0000E+00  0.0000E+00  0.0000E+00  0.0000E+00  0.0000E+00  0.0000E+00  0.0000E+00  0.0000E+00  0.0000E+00  0.0000E+00  0.0000E+00  0.0000E+00  0.0000E+00  0.0000E+00
    -39.311  0.0000E+00  0.0000E+00  0.0000E+00  0.0000E+00  0.0000E+00  0.0000E+00  0.0000E+00  0.0000E+00  0.0000E+00  0.0000E+00  0.0000E+00  0.0000E+00  0.0000E+00  0.0000E+00  0.0000E+00  0.0000E+00  0.0000E+00  0.0000E+00
    -39.113  0.0000E+00  0.0000E+00  0.0000E+00  0.0000E+00  0.0000E+00  0.0000E+00  0.0000E+00  0.0000E+00  0.0000E+00  0.0000E+00  0.0000E+00  0.0000E+00  0.0000E+00  0.0000E+00  0.0000E+00  0.0000E+00  0.0000E+00  0.0000E+00
    -38.915  0.0000E+00  0.0000E+00  0.0000E+00  0.0000E+00  0.0000E+00  0.0000E+00  0.0000E+00  0.0000E+00  0.0000E+00  0.0000E+00  0.0000E+00  0.0000E+00  0.0000E+00  0.0000E+00  0.0000E+00  0.0000E+00  0.0000E+00  0.0000E+00
    -38.717  0.0000E+00  0.0000E+00  0.0000E+00  0.0000E+00  0.0000E+00  0.0000E+00  0.0000E+00  0.0000E+00  0.0000E+00  0.0000E+00  0.0000E+00  0.0000E+00  0.0000E+00  0.0000E+00  0.0000E+00  0.0000E+00  0.0000E+00  0.0000E+00
    -38.519  0.0000E+00  0.0000E+00  0.0000E+00  0.0000E+00  0.0000E+00  0.0000E+00  0.0000E+00  0.0000E+00  0.0000E+00  0.0000E+00  0.0000E+00  0.0000E+00  0.0000E+00  0.0000E+00  0.0000E+00  0.0000E+00  0.0000E+00  0.0000E+00
    -38.321  0.0000E+00  0.0000E+00  0.0000E+00  0.0000E+00  0.0000E+00  0.0000E+00  0.0000E+00  0.0000E+00  0.0000E+00  0.0000E+00  0.0000E+00  0.0000E+00  0.0000E+00  0.0000E+00  0.0000E+00  0.0000E+00  0.0000E+00  0.0000E+00
    -38.123  0.0000E+00  0.0000E+00  0.0000E+00  0.0000E+00  0.0000E+00  0.0000E+00  0.0000E+00  0.0000E+00  0.0000E+00  0.0000E+00  0.0000E+00  0.0000E+00  0.0000E+00  0.0000E+00  0.0000E+00  0.0000E+00  0.0000E+00  0.0000E+00
    -37.925  0.0000E+00  0.0000E+00  0.0000E+00  0.0000E+00  0.0000E+00  0.0000E+00  0.0000E+00  0.0000E+00  0.0000E+00  0.0000E+00  0.0000E+00  0.0000E+00  0.0000E+00  0.0000E+00  0.0000E+00  0.0000E+00  0.0000E+00  0.0000E+00
    -37.727  0.0000E+00  0.0000E+00  0.0000E+00  0.0000E+00  0.0000E+00  0.0000E+00  0.0000E+00  0.0000E+00  0.0000E+00  0.0000E+00  0.0000E+00  0.0000E+00  0.0000E+00  0.0000E+00  0.0000E+00  0.0000E+00  0.0000E+00  0.0000E+00
    -37.529  0.0000E+00  0.0000E+00  0.0000E+00  0.0000E+00  0.0000E+00  0.0000E+00  0.0000E+00  0.0000E+00  0.0000E+00  0.0000E+00  0.0000E+00  0.0000E+00  0.0000E+00  0.0000E+00  0.0000E+00  0.0000E+00  0.0000E+00  0.0000E+00
    -37.331  0.0000E+00  0.0000E+00  0.0000E+00  0.0000E+00  0.0000E+00  0.0000E+00  0.0000E+00  0.0000E+00  0.0000E+00  0.0000E+00  0.0000E+00  0.0000E+00  0.0000E+00  0.0000E+00  0.0000E+00  0.0000E+00  0.0000E+00  0.0000E+00
    -37.133  0.0000E+00  0.0000E+00  0.0000E+00  0.0000E+00  0.0000E+00  0.0000E+00  0.0000E+00  0.0000E+00  0.0000E+00  0.0000E+00  0.0000E+00  0.0000E+00  0.0000E+00  0.0000E+00  0.0000E+00  0.0000E+00  0.0000E+00  0.0000E+00
    -36.935  0.0000E+00  0.0000E+00  0.0000E+00  0.0000E+00  0.0000E+00  0.0000E+00  0.0000E+00  0.0000E+00  0.0000E+00  0.0000E+00  0.0000E+00  0.0000E+00  0.0000E+00  0.0000E+00  0.0000E+00  0.0000E+00  0.0000E+00  0.0000E+00
    -36.737  0.0000E+00  0.0000E+00  0.0000E+00  0.0000E+00  0.0000E+00  0.0000E+00  0.0000E+00  0.0000E+00  0.0000E+00  0.0000E+00  0.0000E+00  0.0000E+00  0.0000E+00  0.0000E+00  0.0000E+00  0.0000E+00  0.0000E+00  0.0000E+00
    -36.539  0.0000E+00  0.0000E+00  0.0000E+00  0.0000E+00  0.0000E+00  0.0000E+00  0.0000E+00  0.0000E+00  0.0000E+00  0.0000E+00  0.0000E+00  0.0000E+00  0.0000E+00  0.0000E+00  0.0000E+00  0.0000E+00  0.0000E+00  0.0000E+00
    -36.341  0.0000E+00  0.0000E+00  0.0000E+00  0.0000E+00  0.0000E+00  0.0000E+00  0.0000E+00  0.0000E+00  0.0000E+00  0.0000E+00  0.0000E+00  0.0000E+00  0.0000E+00  0.0000E+00  0.0000E+00  0.0000E+00  0.0000E+00  0.0000E+00
    -36.143  0.0000E+00  0.0000E+00  0.0000E+00  0.0000E+00  0.0000E+00  0.0000E+00  0.0000E+00  0.0000E+00  0.0000E+00  0.0000E+00  0.0000E+00  0.0000E+00  0.0000E+00  0.0000E+00  0.0000E+00  0.0000E+00  0.0000E+00  0.0000E+00
    -35.945  0.0000E+00  0.0000E+00  0.0000E+00  0.0000E+00  0.0000E+00  0.0000E+00  0.0000E+00  0.0000E+00  0.0000E+00  0.0000E+00  0.0000E+00  0.0000E+00  0.0000E+00  0.0000E+00  0.0000E+00  0.0000E+00  0.0000E+00  0.0000E+00
    -35.747  0.0000E+00  0.0000E+00  0.0000E+00  0.0000E+00  0.0000E+00  0.0000E+00  0.0000E+00  0.0000E+00  0.0000E+00  0.0000E+00  0.0000E+00  0.0000E+00  0.0000E+00  0.0000E+00  0.0000E+00  0.0000E+00  0.0000E+00  0.0000E+00