   2   2   1   0
  0.2320928E+02  0.3253619E-09  0.3253618E-09  0.5063231E-09  0.5000000E-15
  1.000000000000000E-004
  CAR 
 unknown system                          
     10.77633398    -47.89627444  301      4.03905223      1.00000000
    -47.896  0.0000E+00  0.0000E+00  0.0000E+00  0.0000E+00
    -47.701  0.0000E+00  0.0000E+00  0.0000E+00  0.0000E+00
    -47.505  0.0000E+00  0.0000E+00  0.0000E+00  0.0000E+00
    -47.310  0.0000E+00  0.0000E+00  0.0000E+00  0.0000E+00
    -47.114  0.0000E+00  0.0000E+00  0.0000E+00  0.0000E+00
    -46.918  0.0000E+00  0.0000E+00  0.0000E+00  0.0000E+00
    -46.723  0.0000E+00  0.0000E+00  0.0000E+00  0.0000E+00
    -46.527  0.0000E+00  0.0000E+00  0.0000E+00  0.0000E+00
    -46.332  0.0000E+00  0.0000E+00  0.0000E+00  0.0000E+00
    -46.136  0.0000E+00  0.0000E+00  0.0000E+00  0.0000E+00
    -45.941  0.0000E+00  0.0000E+00  0.0000E+00  0.0000E+00
    -45.745  0.5302E-04  0.3961E-04  0.1037E-04  0.7747E-05
    -45.549  0.4037E-02  0.3577E-02  0.7999E-03  0.7073E-03
    -45.354  0.1951E+00  0.1730E+00  0.3896E-01  0.3454E-01
    -45.158  0.4601E+01  0.4327E+01  0.9388E+00  0.8807E+00
    -44.963  0.5181E+01  0.5447E+01  0.1952E+01  0.1946E+01
    -44.767  0.2144E+00  0.2495E+00  0.1999E+01  0.1999E+01
    -44.571  0.0000E+00  0.0000E+00  0.2000E+01  0.2000E+01
    -44.376  0.0000E+00  0.0000E+00  0.2000E+01  0.2000E+01
    -44.180  0.0000E+00  0.0000E+00  0.2000E+01  0.2000E+01
    -43.985  0.0000E+00  0.0000E+00  0.2000E+01  0.2000E+01
    -43.789  0.0000E+00  0.0000E+00  0.2000E+01  0.2000E+01
    -43.594  0.0000E+00  0.0000E+00  0.2000E+01  0.2000E+01
    -43.398  0.0000E+00  0.0000E+00  0.2000E+01  0.2000E+01
    -43.202  0.0000E+00  0.0000E+00  0.2000E+01  0.2000E+01
    -43.007  0.0000E+00  0.0000E+00  0.2000E+01  0.2000E+01
    -42.811  0.0000E+00  0.0000E+00  0.2000E+01  0.2000E+01
    -42.616  0.0000E+00  0.0000E+00  0.2000E+01  0.2000E+01
    -42.420  0.0000E+00  0.0000E+00  0.2000E+01  0.2000E+01
    -42.225  0.0000E+00  0.0000E+00  0.2000E+01  0.2000E+01
    -42.029  0.0000E+00  0.0000E+00  0.2000E+01  0.2000E+01
    -41.833  0.0000E+00  0.0000E+00  0.2000E+01  0.2000E+01
    -41.638  0.0000E+00  0.0000E+00  0.2000E+01  0.2000E+01
    -41.442  0.0000E+00  0.0000E+00  0.2000E+01  0.2000E+01
    -41.247  0.0000E+00  0.0000E+00  0.2000E+01  0.2000E+01
    -41.051  0.0000E+00  0.0000E+00  0.2000E+01  0.2000E+01
    -40.856  0.0000E+00  0.0000E+00  0.2000E+01  0.2000E+01
    -40.660  0.0000E+00  0.0000E+00  0.2000E+01  0.2000E+01
    -40.464  0.0000E+00  0.0000E+00  0.2000E+01  0.2000E+01
    -40.269  0.0000E+00  0.0000E+00  0.2000E+01  0.2000E+01
    -40.073  0.0000E+00  0.0000E+00  0.2000E+01  0.2000E+01
    -39.878  0.0000E+00  0.0000E+00  0.2000E+01  0.2000E+01
    -39.682  0.0000E+00  0.0000E+00  0.2000E+01  0.2000E+01
    -39.487  0.0000E+00  0.0000E+00  0.2000E+01  0.2000E+01
    -39.291  0.0000E+00  0.0000E+00  0.2000E+01  0.2000E+01
    -39.095  0.0000E+00  0.0000E+00  0.2000E+01  0.2000E+01
    -38.900  0.0000E+00  0.0000E+00  0.2000E+01  0.2000E+01
    -38.704  0.0000E+00  0.0000E+00  0.2000E+01  0.2000E+01
    -38.509  0.0000E+00  0.0000E+00  0.2000E+01  0.2000E+01
    -38.313  0.0000E+00  0.0000E+00  0.2000E+01  0.2000E+01
    -38.118  0.0000E+00  0.0000E+00  0.2000E+01  0.2000E+01
    -37.922  0.0000E+00  0.0000E+00  0.2000E+01  0.2000E+01
    -37.726  0.0000E+00  0.0000E+00  0.2000E+01  0.2000E+01
    -37.531  0.0000E+00  0.0000E+00  0.2000E+01  0.2000E+01
    -37.335  0.0000E+00  0.0000E+00  0.2000E+01  0.2000E+01
    -37.140  0.0000E+00  0.0000E+00  0.2000E+01  0.2000E+01
    -36.944  0.0000E+00  0.0000E+00  0.2000E+01  0.2000E+01
    -36.748  0.0000E+00  0.0000E+00  0.2000E+01  0.2000E+01
    -36.553  0.0000E+00  0.0000E+00  0.2000E+01  0.2000E+01
    -36.357  0.0000E+00  0.0000E+00  0.2000E+01  0.2000E+01
    -36.162  0.0000E+00  0.0000E+00  0.2000E+01  0.2000E+01
    -35.966  0.0000E+00  0.0000E+00  0.2000E+01  0.2000E+01
    -35.771  0.0000E+00  0.0000E+00  0.2000E+01  0.2000E+01
    -35.575  0.0000E+00  0.0000E+00  0.2000E+01  0.2000E+01
    -35.379  0.0000E+00  0.0000E+00  0.2000E+01  0.2000E+01
    -35.184  0.0000E+00  0.0000E+00  0.2000E+01  0.2000E+01
    -34.988  0.0000E+00  0.0000E+00  0.2000E+01  0.2000E+01
    -34.793  0.0000E+00  0.0000E+00  0.2000E+01  0.2000E+01
    -34.597  0.0000E+00  0.0000E+00  0.2000E+01  0.2000E+01
    -34.402  0.0000E+00  0.0000E+00  0.2000E+01  0.2000E+01
    -34.206  0.0000E+00  0.0000E+00  0.2000E+01  0.2000E+01
    -34.010  0.0000E+00  0.0000E+00  0.2000E+01  0.2000E+01
    -33.815  0.0000E+00  0.0000E+00  0.2000E+01  0.2000E+01
    -33.619  0.0000E+00  0.0000E+00  0.2000E+01  0.2000E+01
    -33.424  0.0000E+00  0.0000E+00  0.2000E+01  0.2000E+01
    -33.228  0.0000E+00  0.0000E+00  0.2000E+01  0.2000E+01
    -33.033  0.0000E+00  0.0000E+00  0.2000E+01  0.2000E+01
    -32.837  0.0000E+00  0.0000E+00  0.2000E+01  0.2000E+01
    -32.641  0.0000E+00  0.0000E+00  0.2000E+01  0.2000E+01
    -32.446  0.0000E+00  0.0000E+00  0.2000E+01  0.2000E+01
    -32.250  0.0000E+00  0.0000E+00  0.2000E+01  0.2000E+01
    -32.055  0.0000E+00  0.0000E+00  0.2000E+01  0.2000E+01
    -31.859  0.0000E+00  0.0000E+00  0.2000E+01  0.2000E+01
    -31.664  0.0000E+00  0.0000E+00  0.2000E+01  0.2000E+01
    -31.468  0.0000E+00  0.0000E+00  0.2000E+01  0.2000E+01
    -31.272  0.0000E+00  0.0000E+00  0.2000E+01  0.2000E+01
    -31.077  0.0000E+00  0.0000E+00  0.2000E+01  0.2000E+01
    -30.881  0.0000E+00  0.0000E+00  0.2000E+01  0.2000E+01
    -30.686  0.0000E+00  0.0000E+00  0.2000E+01  0.2000E+01
    -30.490  0.0000E+00  0.0000E+00  0.2000E+01  0.2000E+01
    -30.294  0.0000E+00  0.0000E+00  0.2000E+01  0.2000E+01
    -30.099  0.0000E+00  0.0000E+00  0.2000E+01  0.2000E+01
    -29.903  0.0000E+00  0.0000E+00  0.2000E+01  0.2000E+01
    -29.708  0.0000E+00  0.0000E+00  0.2000E+01  0.2000E+01
    -29.512  0.0000E+00  0.0000E+00  0.2000E+01  0.2000E+01
    -29.317  0.0000E+00  0.0000E+00  0.2000E+01  0.2000E+01
    -29.121  0.0000E+00  0.0000E+00  0.2000E+01  0.2000E+01
    -28.925  0.0000E+00  0.0000E+00  0.2000E+01  0.2000E+01
    -28.730  0.0000E+00  0.0000E+00  0.2000E+01  0.2000E+01
    -28.534  0.0000E+00  0.0000E+00  0.2000E+01  0.2000E+01
    -28.339  0.0000E+00  0.0000E+00  0.2000E+01  0.2000E+01
    -28.143  0.0000E+00  0.0000E+00  0.2000E+01  0.2000E+01
    -27.948  0.0000E+00  0.0000E+00  0.2000E+01  0.2000E+01
    -27.752  0.0000E+00  0.0000E+00  0.2000E+01  0.2000E+01
    -27.556  0.0000E+00  0.0000E+00  0.2000E+01  0.2000E+01
    -27.361  0.0000E+00  0.0000E+00  0.2000E+01  0.2000E+01
    -27.165  0.0000E+00  0.0000E+00  0.2000E+01  0.2000E+01
    -26.970  0.0000E+00  0.0000E+00  0.2000E+01  0.2000E+01
    -26.774  0.0000E+00  0.0000E+00  0.2000E+01  0.2000E+01
    -26.579  0.0000E+00  0.0000E+00  0.2000E+01  0.2000E+01
    -26.383  0.0000E+00  0.0000E+00  0.2000E+01  0.2000E+01
    -26.187  0.0000E+00  0.0000E+00  0.2000E+01  0.2000E+01
    -25.992  0.0000E+00  0.0000E+00  0.2000E+01  0.2000E+01
    -25.796  0.0000E+00  0.0000E+00  0.2000E+01  0.2000E+01
    -25.601  0.0000E+00  0.0000E+00  0.2000E+01  0.2000E+01
    -25.405  0.0000E+00  0.0000E+00  0.2000E+01  0.2000E+01
    -25.210  0.0000E+00  0.0000E+00  0.2000E+01  0.2000E+01
    -25.014  0.0000E+00  0.0000E+00  0.2000E+01  0.2000E+01
    -24.818  0.0000E+00  0.0000E+00  0.2000E+01  0.2000E+01
    -24.623  0.1770E-04  0.1312E-04  0.2000E+01  0.2000E+01
    -24.427  0.1890E-02  0.1663E-02  0.2000E+01  0.2000E+01
    -24.232  0.9284E-01  0.8187E-01  0.2019E+01  0.2016E+01
    -24.036  0.2659E+01  0.2452E+01  0.2539E+01  0.2496E+01
    -23.841  0.9249E+01  0.9092E+01  0.4348E+01  0.4274E+01
    -23.645  0.1395E+02  0.1393E+02  0.7078E+01  0.7001E+01
    -23.449  0.4524E+01  0.4896E+01  0.7970E+01  0.7966E+01
    -23.254  0.5911E-01  0.7792E-01  0.8000E+01  0.8000E+01
    -23.058  0.0000E+00  0.0000E+00  0.8000E+01  0.8000E+01
    -22.863  0.0000E+00  0.0000E+00  0.8000E+01  0.8000E+01
    -22.667  0.0000E+00  0.0000E+00  0.8000E+01  0.8000E+01
    -22.471  0.0000E+00  0.0000E+00  0.8000E+01  0.8000E+01
    -22.276  0.0000E+00  0.0000E+00  0.8000E+01  0.8000E+01
    -22.080  0.0000E+00  0.0000E+00  0.8000E+01  0.8000E+01
    -21.885  0.0000E+00  0.0000E+00  0.8000E+01  0.8000E+01
    -21.689  0.0000E+00  0.0000E+00  0.8000E+01  0.8000E+01
    -21.494  0.0000E+00  0.0000E+00  0.8000E+01  0.8000E+01
    -21.298  0.0000E+00  0.0000E+00  0.8000E+01  0.8000E+01
    -21.102  0.0000E+00  0.0000E+00  0.8000E+01  0.8000E+01
    -20.907  0.0000E+00  0.0000E+00  0.8000E+01  0.8000E+01
    -20.711  0.0000E+00  0.0000E+00  0.8000E+01  0.8000E+01
    -20.516  0.0000E+00  0.0000E+00  0.8000E+01  0.8000E+01
    -20.320  0.0000E+00  0.0000E+00  0.8000E+01  0.8000E+01
    -20.125  0.0000E+00  0.0000E+00  0.8000E+01  0.8000E+01
    -19.929  0.0000E+00  0.0000E+00  0.8000E+01  0.8000E+01
    -19.733  0.0000E+00  0.0000E+00  0.8000E+01  0.8000E+01
    -19.538  0.0000E+00  0.0000E+00  0.8000E+01  0.8000E+01
    -19.342  0.0000E+00  0.0000E+00  0.8000E+01  0.8000E+01
    -19.147  0.0000E+00  0.0000E+00  0.8000E+01  0.8000E+01
    -18.951  0.0000E+00  0.0000E+00  0.8000E+01  0.8000E+01
    -18.756  0.0000E+00  0.0000E+00  0.8000E+01  0.8000E+01
    -18.560  0.0000E+00  0.0000E+00  0.8000E+01  0.8000E+01
    -18.364  0.0000E+00  0.0000E+00  0.8000E+01  0.8000E+01
    -18.169  0.0000E+00  0.0000E+00  0.8000E+01  0.8000E+01
    -17.973  0.0000E+00  0.0000E+00  0.8000E+01  0.8000E+01
    -17.778  0.0000E+00  0.0000E+00  0.8000E+01  0.8000E+01
    -17.582  0.0000E+00  0.0000E+00  0.8000E+01  0.8000E+01
    -17.387  0.0000E+00  0.0000E+00  0.8000E+01  0.8000E+01
    -17.191  0.0000E+00  0.0000E+00  0.8000E+01  0.8000E+01
    -16.995  0.0000E+00  0.0000E+00  0.8000E+01  0.8000E+01
    -16.800  0.0000E+00  0.0000E+00  0.8000E+01  0.8000E+01
    -16.604  0.0000E+00  0.0000E+00  0.8000E+01  0.8000E+01
    -16.409  0.0000E+00  0.0000E+00  0.8000E+01  0.8000E+01
    -16.213  0.0000E+00  0.0000E+00  0.8000E+01  0.8000E+01
    -16.017  0.0000E+00  0.0000E+00  0.8000E+01  0.8000E+01
    -15.822  0.0000E+00  0.0000E+00  0.8000E+01  0.8000E+01
    -15.626  0.0000E+00  0.0000E+00  0.8000E+01  0.8000E+01
    -15.431  0.0000E+00  0.0000E+00  0.8000E+01  0.8000E+01
    -15.235  0.0000E+00  0.0000E+00  0.8000E+01  0.8000E+01
    -15.040  0.0000E+00  0.0000E+00  0.8000E+01  0.8000E+01
    -14.844  0.0000E+00  0.0000E+00  0.8000E+01  0.8000E+01
    -14.648  0.0000E+00  0.0000E+00  0.8000E+01  0.8000E+01
    -14.453  0.0000E+00  0.0000E+00  0.8000E+01  0.8000E+01
    -14.257  0.0000E+00  0.0000E+00  0.8000E+01  0.8000E+01
    -14.062  0.0000E+00  0.0000E+00  0.8000E+01  0.8000E+01
    -13.866  0.0000E+00  0.0000E+00  0.8000E+01  0.8000E+01
    -13.671  0.0000E+00  0.0000E+00  0.8000E+01  0.8000E+01
    -13.475  0.0000E+00  0.0000E+00  0.8000E+01  0.8000E+01
    -13.279  0.0000E+00  0.0000E+00  0.8000E+01  0.8000E+01
    -13.084  0.0000E+00  0.0000E+00  0.8000E+01  0.8000E+01
    -12.888  0.0000E+00  0.0000E+00  0.8000E+01  0.8000E+01
    -12.693  0.0000E+00  0.0000E+00  0.8000E+01  0.8000E+01
    -12.497  0.0000E+00  0.0000E+00  0.8000E+01  0.8000E+01
    -12.302  0.0000E+00  0.0000E+00  0.8000E+01  0.8000E+01
    -12.106  0.0000E+00  0.0000E+00  0.8000E+01  0.8000E+01
    -11.910  0.0000E+00  0.0000E+00  0.8000E+01  0.8000E+01
    -11.715  0.0000E+00  0.0000E+00  0.8000E+01  0.8000E+01
    -11.519  0.0000E+00  0.0000E+00  0.8000E+01  0.8000E+01
    -11.324  0.0000E+00  0.0000E+00  0.8000E+01  0.8000E+01
    -11.128  0.0000E+00  0.0000E+00  0.8000E+01  0.8000E+01
    -10.933  0.0000E+00  0.0000E+00  0.8000E+01  0.8000E+01
    -10.737  0.0000E+00  0.0000E+00  0.8000E+01  0.8000E+01
    -10.541  0.0000E+00  0.0000E+00  0.8000E+01  0.8000E+01
    -10.346  0.0000E+00  0.0000E+00  0.8000E+01  0.8000E+01
    -10.150  0.0000E+00  0.0000E+00  0.8000E+01  0.8000E+01
     -9.955  0.0000E+00  0.0000E+00  0.8000E+01  0.8000E+01
     -9.759  0.0000E+00  0.0000E+00  0.8000E+01  0.8000E+01
     -9.564  0.0000E+00  0.0000E+00  0.8000E+01  0.8000E+01
     -9.368  0.0000E+00  0.0000E+00  0.8000E+01  0.8000E+01
     -9.172  0.0000E+00  0.0000E+00  0.8000E+01  0.8000E+01
     -8.977  0.0000E+00  0.0000E+00  0.8000E+01  0.8000E+01
     -8.781  0.0000E+00  0.0000E+00  0.8000E+01  0.8000E+01
     -8.586  0.0000E+00  0.0000E+00  0.8000E+01  0.8000E+01
     -8.390  0.0000E+00  0.0000E+00  0.8000E+01  0.8000E+01
     -8.194  0.0000E+00  0.0000E+00  0.8000E+01  0.8000E+01
     -7.999  0.0000E+00  0.0000E+00  0.8000E+01  0.8000E+01
     -7.803  0.0000E+00  0.0000E+00  0.8000E+01  0.8000E+01
     -7.608  0.0000E+00  0.0000E+00  0.8000E+01  0.8000E+01
     -7.412  0.0000E+00  0.0000E+00  0.8000E+01  0.8000E+01
     -7.217  0.0000E+00  0.0000E+00  0.8000E+01  0.8000E+01
     -7.021  0.0000E+00  0.0000E+00  0.8000E+01  0.8000E+01
     -6.825  0.0000E+00  0.0000E+00  0.8000E+01  0.8000E+01
     -6.630  0.0000E+00  0.0000E+00  0.8000E+01  0.8000E+01
     -6.434  0.0000E+00  0.0000E+00  0.8000E+01  0.8000E+01
     -6.239  0.0000E+00  0.0000E+00  0.8000E+01  0.8000E+01
     -6.043  0.0000E+00  0.0000E+00  0.8000E+01  0.8000E+01
     -5.848  0.0000E+00  0.0000E+00  0.8000E+01  0.8000E+01
     -5.652  0.0000E+00  0.0000E+00  0.8000E+01  0.8000E+01
     -5.456  0.0000E+00  0.0000E+00  0.8000E+01  0.8000E+01
     -5.261  0.0000E+00  0.0000E+00  0.8000E+01  0.8000E+01
     -5.065  0.0000E+00  0.0000E+00  0.8000E+01  0.8000E+01
     -4.870  0.0000E+00  0.0000E+00  0.8000E+01  0.8000E+01
     -4.674  0.0000E+00  0.0000E+00  0.8000E+01  0.8000E+01
     -4.479  0.0000E+00  0.0000E+00  0.8000E+01  0.8000E+01
     -4.283  0.0000E+00  0.0000E+00  0.8000E+01  0.8000E+01
     -4.087  0.0000E+00  0.0000E+00  0.8000E+01  0.8000E+01
     -3.892  0.0000E+00  0.0000E+00  0.8000E+01  0.8000E+01
     -3.696  0.0000E+00  0.0000E+00  0.8000E+01  0.8000E+01
     -3.501  0.0000E+00  0.0000E+00  0.8000E+01  0.8000E+01
     -3.305  0.0000E+00  0.0000E+00  0.8000E+01  0.8000E+01
     -3.110  0.0000E+00  0.0000E+00  0.8000E+01  0.8000E+01
     -2.914  0.0000E+00  0.0000E+00  0.8000E+01  0.8000E+01
     -2.718  0.0000E+00  0.0000E+00  0.8000E+01  0.8000E+01
     -2.523  0.0000E+00  0.0000E+00  0.8000E+01  0.8000E+01
     -2.327  0.0000E+00  0.0000E+00  0.8000E+01  0.8000E+01
     -2.132  0.0000E+00  0.0000E+00  0.8000E+01  0.8000E+01
     -1.936  0.0000E+00  0.0000E+00  0.8000E+01  0.8000E+01
     -1.740  0.7476E-07  0.5596E-07  0.8000E+01  0.8000E+01
     -1.545  0.6906E-05  0.5171E-05  0.8000E+01  0.8000E+01
     -1.349  0.3321E-03  0.2506E-03  0.8000E+01  0.8000E+01
     -1.154  0.8683E-02  0.7159E-02  0.8002E+01  0.8001E+01
     -0.958  0.4605E-01  0.4356E-01  0.8011E+01  0.8010E+01
     -0.763  0.6316E-01  0.5992E-01  0.8023E+01  0.8022E+01
     -0.567  0.1043E+00  0.1060E+00  0.8044E+01  0.8042E+01
     -0.371  0.8957E-01  0.8676E-01  0.8061E+01  0.8059E+01
     -0.176  0.1494E+00  0.1491E+00  0.8091E+01  0.8089E+01
      0.020  0.1505E+00  0.1455E+00  0.8120E+01  0.8117E+01
      0.215  0.1373E+00  0.1427E+00  0.8147E+01  0.8145E+01
      0.411  0.1880E+00  0.1774E+00  0.8184E+01  0.8180E+01
      0.606  0.2408E+00  0.2446E+00  0.8231E+01  0.8228E+01
      0.802  0.1875E+00  0.1908E+00  0.8268E+01  0.8265E+01
      0.998  0.2384E+00  0.2312E+00  0.8315E+01  0.8311E+01
      1.193  0.2949E+00  0.2956E+00  0.8373E+01  0.8369E+01
      1.389  0.3119E+00  0.3082E+00  0.8434E+01  0.8429E+01
      1.584  0.3543E+00  0.3539E+00  0.8503E+01  0.8499E+01
      1.780  0.3191E+00  0.3219E+00  0.8566E+01  0.8562E+01
      1.975  0.5053E+00  0.4805E+00  0.8665E+01  0.8656E+01
      2.171  0.6100E+00  0.6180E+00  0.8784E+01  0.8777E+01
      2.367  0.6335E+00  0.6227E+00  0.8909E+01  0.8899E+01
      2.562  0.9098E+00  0.8903E+00  0.9087E+01  0.9074E+01
      2.758  0.9110E+00  0.9333E+00  0.9266E+01  0.9256E+01
      2.953  0.8761E+00  0.8641E+00  0.9438E+01  0.9426E+01
      3.149  0.1056E+01  0.1060E+01  0.9645E+01  0.9634E+01
      3.344  0.1201E+01  0.1188E+01  0.9881E+01  0.9867E+01
      3.540  0.1463E+01  0.1443E+01  0.1017E+02  0.1015E+02
      3.736  0.1553E+01  0.1518E+01  0.1047E+02  0.1045E+02
      3.931  0.1746E+01  0.1738E+01  0.1082E+02  0.1079E+02
      4.127  0.1928E+01  0.1901E+01  0.1119E+02  0.1116E+02
      4.322  0.1735E+01  0.1794E+01  0.1153E+02  0.1152E+02
      4.518  0.1024E+01  0.1069E+01  0.1174E+02  0.1173E+02
      4.713  0.7986E+00  0.8025E+00  0.1189E+02  0.1188E+02
      4.909  0.9376E+00  0.9323E+00  0.1208E+02  0.1207E+02
      5.105  0.1468E+01  0.1425E+01  0.1237E+02  0.1235E+02
      5.300  0.2353E+01  0.2330E+01  0.1283E+02  0.1280E+02
      5.496  0.2531E+01  0.2539E+01  0.1332E+02  0.1330E+02
      5.691  0.2241E+01  0.2254E+01  0.1376E+02  0.1374E+02
      5.887  0.2365E+01  0.2364E+01  0.1423E+02  0.1421E+02
      6.083  0.2323E+01  0.2348E+01  0.1468E+02  0.1467E+02
      6.278  0.1543E+01  0.1570E+01  0.1499E+02  0.1498E+02
      6.474  0.1059E+01  0.1077E+01  0.1520E+02  0.1519E+02
      6.669  0.7432E+00  0.7476E+00  0.1534E+02  0.1534E+02
      6.865  0.6941E+00  0.6994E+00  0.1548E+02  0.1548E+02
      7.060  0.5742E+00  0.5718E+00  0.1559E+02  0.1559E+02
      7.256  0.5810E+00  0.5841E+00  0.1571E+02  0.1570E+02
      7.452  0.4439E+00  0.4491E+00  0.1579E+02  0.1579E+02
      7.647  0.4179E+00  0.4174E+00  0.1588E+02  0.1587E+02
      7.843  0.3995E+00  0.3878E+00  0.1595E+02  0.1595E+02
      8.038  0.1802E+00  0.1940E+00  0.1599E+02  0.1599E+02
      8.234  0.4546E-01  0.5513E-01  0.1600E+02  0.1600E+02
      8.429  0.1321E-02  0.2684E-02  0.1600E+02  0.1600E+02
      8.625  0.0000E+00  0.0000E+00  0.1600E+02  0.1600E+02
      8.821  0.0000E+00  0.0000E+00  0.1600E+02  0.1600E+02
      9.016  0.0000E+00  0.0000E+00  0.1600E+02  0.1600E+02
      9.212  0.0000E+00  0.0000E+00  0.1600E+02  0.1600E+02
      9.407  0.0000E+00  0.0000E+00  0.1600E+02  0.1600E+02
      9.603  0.0000E+00  0.0000E+00  0.1600E+02  0.1600E+02
      9.798  0.0000E+00  0.0000E+00  0.1600E+02  0.1600E+02
      9.994  0.0000E+00  0.0000E+00  0.1600E+02  0.1600E+02
     10.190  0.0000E+00  0.0000E+00  0.1600E+02  0.1600E+02
     10.385  0.0000E+00  0.0000E+00  0.1600E+02  0.1600E+02
     10.581  0.0000E+00  0.0000E+00  0.1600E+02  0.1600E+02
     10.776  0.0000E+00  0.0000E+00  0.1600E+02  0.1600E+02
     10.77633398    -47.89627444  301      4.03905223      1.00000000
    -47.896  0.0000E+00  0.0000E+00  0.0000E+00  0.0000E+00  0.0000E+00  0.0000E+00  0.0000E+00  0.0000E+00  0.0000E+00  0.0000E+00  0.0000E+00  0.0000E+00  0.0000E+00  0.0000E+00  0.0000E+00  0.0000E+00  0.0000E+00  0.0000E+00
    -47.701  0.0000E+00  0.0000E+00  0.0000E+00  0.0000E+00  0.0000E+00  0.0000E+00  0.0000E+00  0.0000E+00  0.0000E+00  0.0000E+00  0.0000E+00  0.0000E+00  0.0000E+00  0.0000E+00  0.0000E+00  0.0000E+00  0.0000E+00  0.0000E+00
    -47.505  0.0000E+00  0.0000E+00  0.0000E+00  0.0000E+00  0.0000E+00  0.0000E+00  0.0000E+00  0.0000E+00  0.0000E+00  0.0000E+00  0.0000E+00  0.0000E+00  0.0000E+00  0.0000E+00  0.0000E+00  0.0000E+00  0.0000E+00  0.0000E+00
    -47.310  0.0000E+00  0.0000E+00  0.0000E+00  0.0000E+00  0.0000E+00  0.0000E+00  0.0000E+00  0.0000E+00  0.0000E+00  0.0000E+00  0.0000E+00  0.0000E+00  0.0000E+00  0.0000E+00  0.0000E+00  0.0000E+00  0.0000E+00  0.0000E+00
    -47.114  0.0000E+00  0.0000E+00  0.0000E+00  0.0000E+00  0.0000E+00  0.0000E+00  0.0000E+00  0.0000E+00  0.0000E+00  0.0000E+00  0.0000E+00  0.0000E+00  0.0000E+00  0.0000E+00  0.0000E+00  0.0000E+00  0.0000E+00  0.0000E+00
    -46.918  0.0000E+00  0.0000E+00  0.0000E+00  0.0000E+00  0.0000E+00  0.0000E+00  0.0000E+00  0.0000E+00  0.0000E+00  0.0000E+00  0.0000E+00  0.0000E+00  0.0000E+00  0.0000E+00  0.0000E+00  0.0000E+00  0.0000E+00  0.0000E+00
    -46.723  0.0000E+00  0.0000E+00  0.0000E+00  0.0000E+00  0.0000E+00  0.0000E+00  0.0000E+00  0.0000E+00  0.0000E+00  0.0000E+00  0.0000E+00  0.0000E+00  0.0000E+00  0.0000E+00  0.0000E+00  0.0000E+00  0.0000E+00  0.0000E+00
    -46.527  0.0000E+00  0.0000E+00  0.0000E+00  0.0000E+00  0.0000E+00  0.0000E+00  0.0000E+00  0.0000E+00  0.0000E+00  0.0000E+00  0.0000E+00  0.0000E+00  0.0000E+00  0.0000E+00  0.0000E+00  0.0000E+00  0.0000E+00  0.0000E+00
    -46.332  0.0000E+00  0.0000E+00  0.0000E+00  0.0000E+00  0.0000E+00  0.0000E+00  0.0000E+00  0.0000E+00  0.0000E+00  0.0000E+00  0.0000E+00  0.0000E+00  0.0000E+00  0.0000E+00  0.0000E+00  0.0000E+00  0.0000E+00  0.0000E+00
    -46.136  0.0000E+00  0.0000E+00  0.0000E+00  0.0000E+00  0.0000E+00  0.0000E+00  0.0000E+00  0.0000E+00  0.0000E+00  0.0000E+00  0.0000E+00  0.0000E+00  0.0000E+00  0.0000E+00  0.0000E+00  0.0000E+00  0.0000E+00  0.0000E+00
    -45.941  0.0000E+00  0.0000E+00  0.0000E+00  0.0000E+00  0.0000E+00  0.0000E+00  0.0000E+00  0.0000E+00  0.0000E+00  0.0000E+00  0.0000E+00  0.0000E+00  0.0000E+00  0.0000E+00  0.0000E+00  0.0000E+00  0.0000E+00  0.0000E+00
    -45.745  0.2638E-04  0.1971E-04  0.1101E-09  0.8813E-10  0.1489E-09  0.1153E-09  0.1101E-09  0.8813E-10  0.1790E-10  0.1188E-10  0.1576E-10  0.9699E-11  0.3103E-10  0.2371E-10  0.1576E-10  0.9699E-11  0.1790E-10  0.1188E-10
    -45.549  0.2010E-02  0.1781E-02  0.6077E-08  0.5383E-08  0.8941E-08  0.7926E-08  0.6077E-08  0.5383E-08  0.1214E-08  0.1100E-08  0.1699E-08  0.1497E-08  0.2256E-08  0.2110E-08  0.1699E-08  0.1497E-08  0.1214E-08  0.1100E-08
    -45.354  0.9713E-01  0.8614E-01  0.2938E-06  0.2607E-06  0.4324E-06  0.3838E-06  0.2938E-06  0.2607E-06  0.5905E-07  0.5339E-07  0.8243E-07  0.7256E-07  0.1092E-06  0.1022E-06  0.8243E-07  0.7256E-07  0.5905E-07  0.5339E-07
    -45.158  0.2291E+01  0.2155E+01  0.6128E-05  0.5812E-05  0.9375E-05  0.8875E-05  0.6128E-05  0.5812E-05  0.1461E-05  0.1399E-05  0.2193E-05  0.2038E-05  0.2595E-05  0.2568E-05  0.2193E-05  0.2038E-05  0.1461E-05  0.1399E-05
    -44.963  0.2581E+01  0.2713E+01  0.5319E-05  0.5643E-05  0.8678E-05  0.9195E-05  0.5319E-05  0.5643E-05  0.1604E-05  0.1721E-05  0.2713E-05  0.2832E-05  0.2826E-05  0.3121E-05  0.2713E-05  0.2832E-05  0.1604E-05  0.1721E-05
    -44.767  0.1068E+00  0.1243E+00  0.1514E-06  0.1904E-06  0.2738E-06  0.3330E-06  0.1514E-06  0.1904E-06  0.6329E-07  0.7652E-07  0.1203E-06  0.1376E-06  0.1115E-06  0.1376E-06  0.1203E-06  0.1376E-06  0.6329E-07  0.7652E-07
    -44.571  0.0000E+00  0.0000E+00  0.0000E+00  0.0000E+00  0.0000E+00  0.0000E+00  0.0000E+00  0.0000E+00  0.0000E+00  0.0000E+00  0.0000E+00  0.0000E+00  0.0000E+00  0.0000E+00  0.0000E+00  0.0000E+00  0.0000E+00  0.0000E+00
    -44.376  0.0000E+00  0.0000E+00  0.0000E+00  0.0000E+00  0.0000E+00  0.0000E+00  0.0000E+00  0.0000E+00  0.0000E+00  0.0000E+00  0.0000E+00  0.0000E+00  0.0000E+00  0.0000E+00  0.0000E+00  0.0000E+00  0.0000E+00  0.0000E+00
    -44.180  0.0000E+00  0.0000E+00  0.0000E+00  0.0000E+00  0.0000E+00  0.0000E+00  0.0000E+00  0.0000E+00  0.0000E+00  0.0000E+00  0.0000E+00  0.0000E+00  0.0000E+00  0.0000E+00  0.0000E+00  0.0000E+00  0.0000E+00  0.0000E+00
    -43.985  0.0000E+00  0.0000E+00  0.0000E+00  0.0000E+00  0.0000E+00  0.0000E+00  0.0000E+00  0.0000E+00  0.0000E+00  0.0000E+00  0.0000E+00  0.0000E+00  0.0000E+00  0.0000E+00  0.0000E+00  0.0000E+00  0.0000E+00  0.0000E+00
    -43.789  0.0000E+00  0.0000E+00  0.0000E+00  0.0000E+00  0.0000E+00  0.0000E+00  0.0000E+00  0.0000E+00  0.0000E+00  0.0000E+00  0.0000E+00  0.0000E+00  0.0000E+00  0.0000E+00  0.0000E+00  0.0000E+00  0.0000E+00  0.0000E+00
    -43.594  0.0000E+00  0.0000E+00  0.0000E+00  0.0000E+00  0.0000E+00  0.0000E+00  0.0000E+00  0.0000E+00  0.0000E+00  0.0000E+00  0.0000E+00  0.0000E+00  0.0000E+00  0.0000E+00  0.0000E+00  0.0000E+00  0.0000E+00  0.0000E+00
    -43.398  0.0000E+00  0.0000E+00  0.0000E+00  0.0000E+00  0.0000E+00  0.0000E+00  0.0000E+00  0.0000E+00  0.0000E+00  0.0000E+00  0.0000E+00  0.0000E+00  0.0000E+00  0.0000E+00  0.0000E+00  0.0000E+00  0.0000E+00  0.0000E+00
    -43.202  0.0000E+00  0.0000E+00  0.0000E+00  0.0000E+00  0.0000E+00  0.0000E+00  0.0000E+00  0.0000E+00  0.0000E+00  0.0000E+00  0.0000E+00  0.0000E+00  0.0000E+00  0.0000E+00  0.0000E+00  0.0000E+00  0.0000E+00  0.0000E+00
    -43.007  0.0000E+00  0.0000E+00  0.0000E+00  0.0000E+00  0.0000E+00  0.0000E+00  0.0000E+00  0.0000E+00  0.0000E+00  0.0000E+00  0.0000E+00  0.0000E+00  0.0000E+00  0.0000E+00  0.0000E+00  0.0000E+00  0.0000E+00  0.0000E+00
    -42.811  0.0000E+00  0.0000E+00  0.0000E+00  0.0000E+00  0.0000E+00  0.0000E+00  0.0000E+00  0.0000E+00  0.0000E+00  0.0000E+00  0.0000E+00  0.0000E+00  0.0000E+00  0.0000E+00  0.0000E+00  0.0000E+00  0.0000E+00  0.0000E+00
    -42.616  0.0000E+00  0.0000E+00  0.0000E+00  0.0000E+00  0.0000E+00  0.0000E+00  0.0000E+00  0.0000E+00  0.0000E+00  0.0000E+00  0.0000E+00  0.0000E+00  0.0000E+00  0.0000E+00  0.0000E+00  0.0000E+00  0.0000E+00  0.0000E+00
    -42.420  0.0000E+00  0.0000E+00  0.0000E+00  0.0000E+00  0.0000E+00  0.0000E+00  0.0000E+00  0.0000E+00  0.0000E+00  0.0000E+00  0.0000E+00  0.0000E+00  0.0000E+00  0.0000E+00  0.0000E+00  0.0000E+00  0.0000E+00  0.0000E+00
    -42.225  0.0000E+00  0.0000E+00  0.0000E+00  0.0000E+00  0.0000E+00  0.0000E+00  0.0000E+00  0.0000E+00  0.0000E+00  0.0000E+00  0.0000E+00  0.0000E+00  0.0000E+00  0.0000E+00  0.0000E+00  0.0000E+00  0.0000E+00  0.0000E+00
    -42.029  0.0000E+00  0.0000E+00  0.0000E+00  0.0000E+00  0.0000E+00  0.0000E+00  0.0000E+00  0.0000E+00  0.0000E+00  0.0000E+00  0.0000E+00  0.0000E+00  0.0000E+00  0.0000E+00  0.0000E+00  0.0000E+00  0.0000E+00  0.0000E+00
    -41.833  0.0000E+00  0.0000E+00  0.0000E+00  0.0000E+00  0.0000E+00  0.0000E+00  0.0000E+00  0.0000E+00  0.0000E+00  0.0000E+00  0.0000E+00  0.0000E+00  0.0000E+00  0.0000E+00  0.0000E+00  0.0000E+00  0.0000E+00  0.0000E+00
    -41.638  0.0000E+00  0.0000E+00  0.0000E+00  0.0000E+00  0.0000E+00  0.0000E+00  0.0000E+00  0.0000E+00  0.0000E+00  0.0000E+00  0.0000E+00  0.0000E+00  0.0000E+00  0.0000E+00  0.0000E+00  0.0000E+00  0.0000E+00  0.0000E+00
    -41.442  0.0000E+00  0.0000E+00  0.0000E+00  0.0000E+00  0.0000E+00  0.0000E+00  0.0000E+00  0.0000E+00  0.0000E+00  0.0000E+00  0.0000E+00  0.0000E+00  0.0000E+00  0.0000E+00  0.0000E+00  0.0000E+00  0.0000E+00  0.0000E+00
    -41.247  0.0000E+00  0.0000E+00  0.0000E+00  0.0000E+00  0.0000E+00  0.0000E+00  0.0000E+00  0.0000E+00  0.0000E+00  0.0000E+00  0.0000E+00  0.0000E+00  0.0000E+00  0.0000E+00  0.0000E+00  0.0000E+00  0.0000E+00  0.0000E+00
    -41.051  0.0000E+00  0.0000E+00  0.0000E+00  0.0000E+00  0.0000E+00  0.0000E+00  0.0000E+00  0.0000E+00  0.0000E+00  0.0000E+00  0.0000E+00  0.0000E+00  0.0000E+00  0.0000E+00  0.0000E+00  0.0000E+00  0.0000E+00  0.0000E+00
    -40.856  0.0000E+00  0.0000E+00  0.0000E+00  0.0000E+00  0.0000E+00  0.0000E+00  0.0000E+00  0.0000E+00  0.0000E+00  0.0000E+00  0.0000E+00  0.0000E+00  0.0000E+00  0.0000E+00  0.0000E+00  0.0000E+00  0.0000E+00  0.0000E+00
    -40.660  0.0000E+00  0.0000E+00  0.0000E+00  0.0000E+00  0.0000E+00  0.0000E+00  0.0000E+00  0.0000E+00  0.0000E+00  0.0000E+00  0.0000E+00  0.0000E+00  0.0000E+00  0.0000E+00  0.0000E+00  0.0000E+00  0.0000E+00  0.0000E+00
    -40.464  0.0000E+00  0.0000E+00  0.0000E+00  0.0000E+00  0.0000E+00  0.0000E+00  0.0000E+00  0.0000E+00  0.0000E+00  0.0000E+00  0.0000E+00  0.0000E+00  0.0000E+00  0.0000E+00  0.0000E+00  0.0000E+00  0.0000E+00  0.0000E+00
    -40.269  0.0000E+00  0.0000E+00  0.0000E+00  0.0000E+00  0.0000E+00  0.0000E+00  0.0000E+00  0.0000E+00  0.0000E+00  0.0000E+00  0.0000E+00  0.0000E+00  0.0000E+00  0.0000E+00  0.0000E+00  0.0000E+00  0.0000E+00  0.0000E+00
    -40.073  0.0000E+00  0.0000E+00  0.0000E+00  0.0000E+00  0.0000E+00  0.0000E+00  0.0000E+00  0.0000E+00  0.0000E+00  0.0000E+00  0.0000E+00  0.0000E+00  0.0000E+00  0.0000E+00  0.0000E+00  0.0000E+00  0.0000E+00  0.0000E+00
    -39.878  0.0000E+00  0.0000E+00  0.0000E+00  0.0000E+00  0.0000E+00  0.0000E+00  0.0000E+00  0.0000E+00  0.0000E+00  0.0000E+00  0.0000E+00  0.0000E+00  0.0000E+00  0.0000E+00  0.0000E+00  0.0000E+00  0.0000E+00  0.0000E+00
    -39.682  0.0000E+00  0.0000E+00  0.0000E+00  0.0000E+00  0.0000E+00  0.0000E+00  0.0000E+00  0.0000E+00  0.0000E+00  0.0000E+00  0.0000E+00  0.0000E+00  0.0000E+00  0.0000E+00  0.0000E+00  0.0000E+00  0.0000E+00  0.0000E+00
    -39.487  0.0000E+00  0.0000E+00  0.0000E+00  0.0000E+00  0.0000E+00  0.0000E+00  0.0000E+00  0.0000E+00  0.0000E+00  0.0000E+00  0.0000E+00  0.0000E+00  0.0000E+00  0.0000E+00  0.0000E+00  0.0000E+00  0.0000E+00  0.0000E+00
    -39.291  0.0000E+00  0.0000E+00  0.0000E+00  0.0000E+00  0.0000E+00  0.0000E+00  0.0000E+00  0.0000E+00  0.0000E+00  0.0000E+00  0.0000E+00  0.0000E+00  0.0000E+00  0.0000E+00  0.0000E+00  0.0000E+00  0.0000E+00  0.0000E+00
    -39.095  0.0000E+00  0.0000E+00  0.0000E+00  0.0000E+00  0.0000E+00  0.0000E+00  0.0000E+00  0.0000E+00  0.0000E+00  0.0000E+00  0.0000E+00  0.0000E+00  0.0000E+00  0.0000E+00  0.0000E+00  0.0000E+00  0.0000E+00  0.0000E+00
    -38.900  0.0000E+00  0.0000E+00  0.0000E+00  0.0000E+00  0.0000E+00  0.0000E+00  0.0000E+00  0.0000E+00  0.0000E+00  0.0000E+00  0.0000E+00  0.0000E+00  0.0000E+00  0.0000E+00  0.0000E+00  0.0000E+00  0.0000E+00  0.0000E+00
    -38.704  0.0000E+00  0.0000E+00  0.0000E+00  0.0000E+00  0.0000E+00  0.0000E+00  0.0000E+00  0.0000E+00  0.0000E+00  0.0000E+00  0.0000E+00  0.0000E+00  0.0000E+00  0.0000E+00  0.0000E+00  0.0000E+00  0.0000E+00  0.0000E+00
    -38.509  0.0000E+00  0.0000E+00  0.0000E+00  0.0000E+00  0.0000E+00  0.0000E+00  0.0000E+00  0.0000E+00  0.0000E+00  0.0000E+00  0.0000E+00  0.0000E+00  0.0000E+00  0.0000E+00  0.0000E+00  0.0000E+00  0.0000E+00  0.0000E+00
    -38.313  0.0000E+00  0.0000E+00  0.0000E+00  0.0000E+00  0.0000E+00  0.0000E+00  0.0000E+00  0.0000E+00  0.0000E+00  0.0000E+00  0.0000E+00  0.0000E+00  0.0000E+00  0.0000E+00  0.0000E+00  0.0000E+00  0.0000E+00  0.0000E+00
    -38.118  0.0000E+00  0.0000E+00  0.0000E+00  0.0000E+00  0.0000E+00  0.0000E+00  0.0000E+00  0.0000E+00  0.0000E+00  0.0000E+00  0.0000E+00  0.0000E+00  0.0000E+00  0.0000E+00  0.0000E+00  0.0000E+00  0.0000E+00  0.0000E+00