   2   2   1   0
  0.2181710E+02  0.3187218E-09  0.3187218E-09  0.4959900E-09  0.5000000E-15
  1.000000000000000E-004
  CAR 
 unknown system                          
     11.47108780    -47.35809527  301      4.42963490      1.00000000
    -47.358  0.0000E+00  0.0000E+00  0.0000E+00  0.0000E+00
    -47.162  0.0000E+00  0.0000E+00  0.0000E+00  0.0000E+00
    -46.966  0.0000E+00  0.0000E+00  0.0000E+00  0.0000E+00
    -46.770  0.0000E+00  0.0000E+00  0.0000E+00  0.0000E+00
    -46.574  0.0000E+00  0.0000E+00  0.0000E+00  0.0000E+00
    -46.378  0.0000E+00  0.0000E+00  0.0000E+00  0.0000E+00
    -46.182  0.0000E+00  0.0000E+00  0.0000E+00  0.0000E+00
    -45.985  0.0000E+00  0.0000E+00  0.0000E+00  0.0000E+00
    -45.789  0.0000E+00  0.0000E+00  0.0000E+00  0.0000E+00
    -45.593  0.0000E+00  0.0000E+00  0.0000E+00  0.0000E+00
    -45.397  0.0000E+00  0.0000E+00  0.0000E+00  0.0000E+00
    -45.201  0.2646E-04  0.1913E-04  0.5189E-05  0.3751E-05
    -45.005  0.2744E-02  0.2321E-02  0.5433E-03  0.4590E-03
    -44.809  0.1341E+00  0.1137E+00  0.2684E-01  0.2275E-01
    -44.613  0.3599E+01  0.3260E+01  0.7325E+00  0.6621E+00
    -44.417  0.6069E+01  0.6360E+01  0.1923E+01  0.1909E+01
    -44.221  0.3715E+00  0.4411E+00  0.1998E+01  0.1998E+01
    -44.024  0.0000E+00  0.0000E+00  0.2000E+01  0.2000E+01
    -43.828  0.0000E+00  0.0000E+00  0.2000E+01  0.2000E+01
    -43.632  0.0000E+00  0.0000E+00  0.2000E+01  0.2000E+01
    -43.436  0.0000E+00  0.0000E+00  0.2000E+01  0.2000E+01
    -43.240  0.0000E+00  0.0000E+00  0.2000E+01  0.2000E+01
    -43.044  0.0000E+00  0.0000E+00  0.2000E+01  0.2000E+01
    -42.848  0.0000E+00  0.0000E+00  0.2000E+01  0.2000E+01
    -42.652  0.0000E+00  0.0000E+00  0.2000E+01  0.2000E+01
    -42.456  0.0000E+00  0.0000E+00  0.2000E+01  0.2000E+01
    -42.260  0.0000E+00  0.0000E+00  0.2000E+01  0.2000E+01
    -42.063  0.0000E+00  0.0000E+00  0.2000E+01  0.2000E+01
    -41.867  0.0000E+00  0.0000E+00  0.2000E+01  0.2000E+01
    -41.671  0.0000E+00  0.0000E+00  0.2000E+01  0.2000E+01
    -41.475  0.0000E+00  0.0000E+00  0.2000E+01  0.2000E+01
    -41.279  0.0000E+00  0.0000E+00  0.2000E+01  0.2000E+01
    -41.083  0.0000E+00  0.0000E+00  0.2000E+01  0.2000E+01
    -40.887  0.0000E+00  0.0000E+00  0.2000E+01  0.2000E+01
    -40.691  0.0000E+00  0.0000E+00  0.2000E+01  0.2000E+01
    -40.495  0.0000E+00  0.0000E+00  0.2000E+01  0.2000E+01
    -40.299  0.0000E+00  0.0000E+00  0.2000E+01  0.2000E+01
    -40.102  0.0000E+00  0.0000E+00  0.2000E+01  0.2000E+01
    -39.906  0.0000E+00  0.0000E+00  0.2000E+01  0.2000E+01
    -39.710  0.0000E+00  0.0000E+00  0.2000E+01  0.2000E+01
    -39.514  0.0000E+00  0.0000E+00  0.2000E+01  0.2000E+01
    -39.318  0.0000E+00  0.0000E+00  0.2000E+01  0.2000E+01
    -39.122  0.0000E+00  0.0000E+00  0.2000E+01  0.2000E+01
    -38.926  0.0000E+00  0.0000E+00  0.2000E+01  0.2000E+01
    -38.730  0.0000E+00  0.0000E+00  0.2000E+01  0.2000E+01
    -38.534  0.0000E+00  0.0000E+00  0.2000E+01  0.2000E+01
    -38.338  0.0000E+00  0.0000E+00  0.2000E+01  0.2000E+01
    -38.142  0.0000E+00  0.0000E+00  0.2000E+01  0.2000E+01
    -37.945  0.0000E+00  0.0000E+00  0.2000E+01  0.2000E+01
    -37.749  0.0000E+00  0.0000E+00  0.2000E+01  0.2000E+01
    -37.553  0.0000E+00  0.0000E+00  0.2000E+01  0.2000E+01
    -37.357  0.0000E+00  0.0000E+00  0.2000E+01  0.2000E+01
    -37.161  0.0000E+00  0.0000E+00  0.2000E+01  0.2000E+01
    -36.965  0.0000E+00  0.0000E+00  0.2000E+01  0.2000E+01
    -36.769  0.0000E+00  0.0000E+00  0.2000E+01  0.2000E+01
    -36.573  0.0000E+00  0.0000E+00  0.2000E+01  0.2000E+01
    -36.377  0.0000E+00  0.0000E+00  0.2000E+01  0.2000E+01
    -36.181  0.0000E+00  0.0000E+00  0.2000E+01  0.2000E+01
    -35.984  0.0000E+00  0.0000E+00  0.2000E+01  0.2000E+01
    -35.788  0.0000E+00  0.0000E+00  0.2000E+01  0.2000E+01
    -35.592  0.0000E+00  0.0000E+00  0.2000E+01  0.2000E+01
    -35.396  0.0000E+00  0.0000E+00  0.2000E+01  0.2000E+01
    -35.200  0.0000E+00  0.0000E+00  0.2000E+01  0.2000E+01
    -35.004  0.0000E+00  0.0000E+00  0.2000E+01  0.2000E+01
    -34.808  0.0000E+00  0.0000E+00  0.2000E+01  0.2000E+01
    -34.612  0.0000E+00  0.0000E+00  0.2000E+01  0.2000E+01
    -34.416  0.0000E+00  0.0000E+00  0.2000E+01  0.2000E+01
    -34.220  0.0000E+00  0.0000E+00  0.2000E+01  0.2000E+01
    -34.023  0.0000E+00  0.0000E+00  0.2000E+01  0.2000E+01
    -33.827  0.0000E+00  0.0000E+00  0.2000E+01  0.2000E+01
    -33.631  0.0000E+00  0.0000E+00  0.2000E+01  0.2000E+01
    -33.435  0.0000E+00  0.0000E+00  0.2000E+01  0.2000E+01
    -33.239  0.0000E+00  0.0000E+00  0.2000E+01  0.2000E+01
    -33.043  0.0000E+00  0.0000E+00  0.2000E+01  0.2000E+01
    -32.847  0.0000E+00  0.0000E+00  0.2000E+01  0.2000E+01
    -32.651  0.0000E+00  0.0000E+00  0.2000E+01  0.2000E+01
    -32.455  0.0000E+00  0.0000E+00  0.2000E+01  0.2000E+01
    -32.259  0.0000E+00  0.0000E+00  0.2000E+01  0.2000E+01
    -32.063  0.0000E+00  0.0000E+00  0.2000E+01  0.2000E+01
    -31.866  0.0000E+00  0.0000E+00  0.2000E+01  0.2000E+01
    -31.670  0.0000E+00  0.0000E+00  0.2000E+01  0.2000E+01
    -31.474  0.0000E+00  0.0000E+00  0.2000E+01  0.2000E+01
    -31.278  0.0000E+00  0.0000E+00  0.2000E+01  0.2000E+01
    -31.082  0.0000E+00  0.0000E+00  0.2000E+01  0.2000E+01
    -30.886  0.0000E+00  0.0000E+00  0.2000E+01  0.2000E+01
    -30.690  0.0000E+00  0.0000E+00  0.2000E+01  0.2000E+01
    -30.494  0.0000E+00  0.0000E+00  0.2000E+01  0.2000E+01
    -30.298  0.0000E+00  0.0000E+00  0.2000E+01  0.2000E+01
    -30.102  0.0000E+00  0.0000E+00  0.2000E+01  0.2000E+01
    -29.905  0.0000E+00  0.0000E+00  0.2000E+01  0.2000E+01
    -29.709  0.0000E+00  0.0000E+00  0.2000E+01  0.2000E+01
    -29.513  0.0000E+00  0.0000E+00  0.2000E+01  0.2000E+01
    -29.317  0.0000E+00  0.0000E+00  0.2000E+01  0.2000E+01
    -29.121  0.0000E+00  0.0000E+00  0.2000E+01  0.2000E+01
    -28.925  0.0000E+00  0.0000E+00  0.2000E+01  0.2000E+01
    -28.729  0.0000E+00  0.0000E+00  0.2000E+01  0.2000E+01
    -28.533  0.0000E+00  0.0000E+00  0.2000E+01  0.2000E+01
    -28.337  0.0000E+00  0.0000E+00  0.2000E+01  0.2000E+01
    -28.141  0.0000E+00  0.0000E+00  0.2000E+01  0.2000E+01
    -27.944  0.0000E+00  0.0000E+00  0.2000E+01  0.2000E+01
    -27.748  0.0000E+00  0.0000E+00  0.2000E+01  0.2000E+01
    -27.552  0.0000E+00  0.0000E+00  0.2000E+01  0.2000E+01
    -27.356  0.0000E+00  0.0000E+00  0.2000E+01  0.2000E+01
    -27.160  0.0000E+00  0.0000E+00  0.2000E+01  0.2000E+01
    -26.964  0.0000E+00  0.0000E+00  0.2000E+01  0.2000E+01
    -26.768  0.0000E+00  0.0000E+00  0.2000E+01  0.2000E+01
    -26.572  0.0000E+00  0.0000E+00  0.2000E+01  0.2000E+01
    -26.376  0.0000E+00  0.0000E+00  0.2000E+01  0.2000E+01
    -26.180  0.0000E+00  0.0000E+00  0.2000E+01  0.2000E+01
    -25.983  0.0000E+00  0.0000E+00  0.2000E+01  0.2000E+01
    -25.787  0.0000E+00  0.0000E+00  0.2000E+01  0.2000E+01
    -25.591  0.0000E+00  0.0000E+00  0.2000E+01  0.2000E+01
    -25.395  0.0000E+00  0.0000E+00  0.2000E+01  0.2000E+01
    -25.199  0.0000E+00  0.0000E+00  0.2000E+01  0.2000E+01
    -25.003  0.0000E+00  0.0000E+00  0.2000E+01  0.2000E+01
    -24.807  0.0000E+00  0.0000E+00  0.2000E+01  0.2000E+01
    -24.611  0.0000E+00  0.0000E+00  0.2000E+01  0.2000E+01
    -24.415  0.0000E+00  0.0000E+00  0.2000E+01  0.2000E+01
    -24.219  0.1710E-06  0.2530E-07  0.2000E+01  0.2000E+01
    -24.023  0.2801E-03  0.2328E-03  0.2000E+01  0.2000E+01
    -23.826  0.1434E-01  0.1199E-01  0.2003E+01  0.2002E+01
    -23.630  0.6144E+00  0.5253E+00  0.2123E+01  0.2105E+01
    -23.434  0.5640E+01  0.5379E+01  0.3229E+01  0.3160E+01
    -23.238  0.8596E+01  0.8437E+01  0.4915E+01  0.4815E+01
    -23.042  0.1238E+02  0.1248E+02  0.7351E+01  0.7269E+01
    -22.846  0.3175E+01  0.3577E+01  0.7980E+01  0.7977E+01
    -22.650  0.2852E-01  0.4192E-01  0.8000E+01  0.8000E+01
    -22.454  0.0000E+00  0.0000E+00  0.8000E+01  0.8000E+01
    -22.258  0.0000E+00  0.0000E+00  0.8000E+01  0.8000E+01
    -22.062  0.0000E+00  0.0000E+00  0.8000E+01  0.8000E+01
    -21.865  0.0000E+00  0.0000E+00  0.8000E+01  0.8000E+01
    -21.669  0.0000E+00  0.0000E+00  0.8000E+01  0.8000E+01
    -21.473  0.0000E+00  0.0000E+00  0.8000E+01  0.8000E+01
    -21.277  0.0000E+00  0.0000E+00  0.8000E+01  0.8000E+01
    -21.081  0.0000E+00  0.0000E+00  0.8000E+01  0.8000E+01
    -20.885  0.0000E+00  0.0000E+00  0.8000E+01  0.8000E+01
    -20.689  0.0000E+00  0.0000E+00  0.8000E+01  0.8000E+01
    -20.493  0.0000E+00  0.0000E+00  0.8000E+01  0.8000E+01
    -20.297  0.0000E+00  0.0000E+00  0.8000E+01  0.8000E+01
    -20.101  0.0000E+00  0.0000E+00  0.8000E+01  0.8000E+01
    -19.904  0.0000E+00  0.0000E+00  0.8000E+01  0.8000E+01
    -19.708  0.0000E+00  0.0000E+00  0.8000E+01  0.8000E+01
    -19.512  0.0000E+00  0.0000E+00  0.8000E+01  0.8000E+01
    -19.316  0.0000E+00  0.0000E+00  0.8000E+01  0.8000E+01
    -19.120  0.0000E+00  0.0000E+00  0.8000E+01  0.8000E+01
    -18.924  0.0000E+00  0.0000E+00  0.8000E+01  0.8000E+01
    -18.728  0.0000E+00  0.0000E+00  0.8000E+01  0.8000E+01
    -18.532  0.0000E+00  0.0000E+00  0.8000E+01  0.8000E+01
    -18.336  0.0000E+00  0.0000E+00  0.8000E+01  0.8000E+01
    -18.140  0.0000E+00  0.0000E+00  0.8000E+01  0.8000E+01
    -17.944  0.0000E+00  0.0000E+00  0.8000E+01  0.8000E+01
    -17.747  0.0000E+00  0.0000E+00  0.8000E+01  0.8000E+01
    -17.551  0.0000E+00  0.0000E+00  0.8000E+01  0.8000E+01
    -17.355  0.0000E+00  0.0000E+00  0.8000E+01  0.8000E+01
    -17.159  0.0000E+00  0.0000E+00  0.8000E+01  0.8000E+01
    -16.963  0.0000E+00  0.0000E+00  0.8000E+01  0.8000E+01
    -16.767  0.0000E+00  0.0000E+00  0.8000E+01  0.8000E+01
    -16.571  0.0000E+00  0.0000E+00  0.8000E+01  0.8000E+01
    -16.375  0.0000E+00  0.0000E+00  0.8000E+01  0.8000E+01
    -16.179  0.0000E+00  0.0000E+00  0.8000E+01  0.8000E+01
    -15.983  0.0000E+00  0.0000E+00  0.8000E+01  0.8000E+01
    -15.786  0.0000E+00  0.0000E+00  0.8000E+01  0.8000E+01
    -15.590  0.0000E+00  0.0000E+00  0.8000E+01  0.8000E+01
    -15.394  0.0000E+00  0.0000E+00  0.8000E+01  0.8000E+01
    -15.198  0.0000E+00  0.0000E+00  0.8000E+01  0.8000E+01
    -15.002  0.0000E+00  0.0000E+00  0.8000E+01  0.8000E+01
    -14.806  0.0000E+00  0.0000E+00  0.8000E+01  0.8000E+01
    -14.610  0.0000E+00  0.0000E+00  0.8000E+01  0.8000E+01
    -14.414  0.0000E+00  0.0000E+00  0.8000E+01  0.8000E+01
    -14.218  0.0000E+00  0.0000E+00  0.8000E+01  0.8000E+01
    -14.022  0.0000E+00  0.0000E+00  0.8000E+01  0.8000E+01
    -13.825  0.0000E+00  0.0000E+00  0.8000E+01  0.8000E+01
    -13.629  0.0000E+00  0.0000E+00  0.8000E+01  0.8000E+01
    -13.433  0.0000E+00  0.0000E+00  0.8000E+01  0.8000E+01
    -13.237  0.0000E+00  0.0000E+00  0.8000E+01  0.8000E+01
    -13.041  0.0000E+00  0.0000E+00  0.8000E+01  0.8000E+01
    -12.845  0.0000E+00  0.0000E+00  0.8000E+01  0.8000E+01
    -12.649  0.0000E+00  0.0000E+00  0.8000E+01  0.8000E+01
    -12.453  0.0000E+00  0.0000E+00  0.8000E+01  0.8000E+01
    -12.257  0.0000E+00  0.0000E+00  0.8000E+01  0.8000E+01
    -12.061  0.0000E+00  0.0000E+00  0.8000E+01  0.8000E+01
    -11.864  0.0000E+00  0.0000E+00  0.8000E+01  0.8000E+01
    -11.668  0.0000E+00  0.0000E+00  0.8000E+01  0.8000E+01
    -11.472  0.0000E+00  0.0000E+00  0.8000E+01  0.8000E+01
    -11.276  0.0000E+00  0.0000E+00  0.8000E+01  0.8000E+01
    -11.080  0.0000E+00  0.0000E+00  0.8000E+01  0.8000E+01
    -10.884  0.0000E+00  0.0000E+00  0.8000E+01  0.8000E+01
    -10.688  0.0000E+00  0.0000E+00  0.8000E+01  0.8000E+01
    -10.492  0.0000E+00  0.0000E+00  0.8000E+01  0.8000E+01
    -10.296  0.0000E+00  0.0000E+00  0.8000E+01  0.8000E+01
    -10.100  0.0000E+00  0.0000E+00  0.8000E+01  0.8000E+01
     -9.904  0.0000E+00  0.0000E+00  0.8000E+01  0.8000E+01
     -9.707  0.0000E+00  0.0000E+00  0.8000E+01  0.8000E+01
     -9.511  0.0000E+00  0.0000E+00  0.8000E+01  0.8000E+01
     -9.315  0.0000E+00  0.0000E+00  0.8000E+01  0.8000E+01
     -9.119  0.0000E+00  0.0000E+00  0.8000E+01  0.8000E+01
     -8.923  0.0000E+00  0.0000E+00  0.8000E+01  0.8000E+01
     -8.727  0.0000E+00  0.0000E+00  0.8000E+01  0.8000E+01
     -8.531  0.0000E+00  0.0000E+00  0.8000E+01  0.8000E+01
     -8.335  0.0000E+00  0.0000E+00  0.8000E+01  0.8000E+01
     -8.139  0.0000E+00  0.0000E+00  0.8000E+01  0.8000E+01
     -7.943  0.0000E+00  0.0000E+00  0.8000E+01  0.8000E+01
     -7.746  0.0000E+00  0.0000E+00  0.8000E+01  0.8000E+01
     -7.550  0.0000E+00  0.0000E+00  0.8000E+01  0.8000E+01
     -7.354  0.0000E+00  0.0000E+00  0.8000E+01  0.8000E+01
     -7.158  0.0000E+00  0.0000E+00  0.8000E+01  0.8000E+01
     -6.962  0.0000E+00  0.0000E+00  0.8000E+01  0.8000E+01
     -6.766  0.0000E+00  0.0000E+00  0.8000E+01  0.8000E+01
     -6.570  0.0000E+00  0.0000E+00  0.8000E+01  0.8000E+01
     -6.374  0.0000E+00  0.0000E+00  0.8000E+01  0.8000E+01
     -6.178  0.0000E+00  0.0000E+00  0.8000E+01  0.8000E+01
     -5.982  0.0000E+00  0.0000E+00  0.8000E+01  0.8000E+01
     -5.785  0.0000E+00  0.0000E+00  0.8000E+01  0.8000E+01
     -5.589  0.0000E+00  0.0000E+00  0.8000E+01  0.8000E+01
     -5.393  0.0000E+00  0.0000E+00  0.8000E+01  0.8000E+01
     -5.197  0.0000E+00  0.0000E+00  0.8000E+01  0.8000E+01
     -5.001  0.0000E+00  0.0000E+00  0.8000E+01  0.8000E+01
     -4.805  0.0000E+00  0.0000E+00  0.8000E+01  0.8000E+01
     -4.609  0.0000E+00  0.0000E+00  0.8000E+01  0.8000E+01
     -4.413  0.0000E+00  0.0000E+00  0.8000E+01  0.8000E+01
     -4.217  0.0000E+00  0.0000E+00  0.8000E+01  0.8000E+01
     -4.021  0.0000E+00  0.0000E+00  0.8000E+01  0.8000E+01
     -3.824  0.0000E+00  0.0000E+00  0.8000E+01  0.8000E+01
     -3.628  0.0000E+00  0.0000E+00  0.8000E+01  0.8000E+01
     -3.432  0.0000E+00  0.0000E+00  0.8000E+01  0.8000E+01
     -3.236  0.0000E+00  0.0000E+00  0.8000E+01  0.8000E+01
     -3.040  0.0000E+00  0.0000E+00  0.8000E+01  0.8000E+01
     -2.844  0.0000E+00  0.0000E+00  0.8000E+01  0.8000E+01
     -2.648  0.0000E+00  0.0000E+00  0.8000E+01  0.8000E+01
     -2.452  0.0000E+00  0.0000E+00  0.8000E+01  0.8000E+01
     -2.256  0.0000E+00  0.0000E+00  0.8000E+01  0.8000E+01
     -2.060  0.0000E+00  0.0000E+00  0.8000E+01  0.8000E+01
     -1.864  0.0000E+00  0.0000E+00  0.8000E+01  0.8000E+01
     -1.667  0.0000E+00  0.0000E+00  0.8000E+01  0.8000E+01
     -1.471  0.5521E-07  0.3548E-07  0.8000E+01  0.8000E+01
     -1.275  0.4803E-05  0.2900E-05  0.8000E+01  0.8000E+01
     -1.079  0.2349E-03  0.1524E-03  0.8000E+01  0.8000E+01
     -0.883  0.6556E-02  0.4839E-02  0.8001E+01  0.8001E+01
     -0.687  0.4068E-01  0.3626E-01  0.8009E+01  0.8008E+01
     -0.491  0.5233E-01  0.5052E-01  0.8020E+01  0.8018E+01
     -0.295  0.1029E+00  0.1006E+00  0.8040E+01  0.8038E+01
     -0.099  0.7814E-01  0.7862E-01  0.8055E+01  0.8053E+01
      0.097  0.1345E+00  0.1268E+00  0.8082E+01  0.8078E+01
      0.294  0.1265E+00  0.1271E+00  0.8106E+01  0.8103E+01
      0.490  0.1623E+00  0.1664E+00  0.8138E+01  0.8136E+01
      0.686  0.1270E+00  0.1207E+00  0.8163E+01  0.8160E+01
      0.882  0.2398E+00  0.2325E+00  0.8210E+01  0.8205E+01
      1.078  0.2045E+00  0.2101E+00  0.8251E+01  0.8247E+01
      1.274  0.1867E+00  0.1813E+00  0.8288E+01  0.8283E+01
      1.470  0.2735E+00  0.2663E+00  0.8341E+01  0.8335E+01
      1.666  0.2935E+00  0.2914E+00  0.8399E+01  0.8392E+01
      1.862  0.3380E+00  0.3342E+00  0.8466E+01  0.8458E+01
      2.058  0.3494E+00  0.3553E+00  0.8535E+01  0.8528E+01
      2.255  0.3280E+00  0.3129E+00  0.8599E+01  0.8589E+01
      2.451  0.6729E+00  0.6515E+00  0.8732E+01  0.8718E+01
      2.647  0.6632E+00  0.6669E+00  0.8862E+01  0.8848E+01
      2.843  0.7770E+00  0.7597E+00  0.9015E+01  0.8998E+01
      3.039  0.9820E+00  0.9785E+00  0.9208E+01  0.9191E+01
      3.235  0.8760E+00  0.8883E+00  0.9380E+01  0.9365E+01
      3.431  0.1068E+01  0.1055E+01  0.9590E+01  0.9573E+01
      3.627  0.1158E+01  0.1138E+01  0.9818E+01  0.9797E+01
      3.823  0.1416E+01  0.1415E+01  0.1010E+02  0.1007E+02
      4.019  0.1288E+01  0.1249E+01  0.1035E+02  0.1032E+02
      4.215  0.1543E+01  0.1499E+01  0.1065E+02  0.1062E+02
      4.412  0.1691E+01  0.1695E+01  0.1099E+02  0.1095E+02
      4.608  0.1891E+01  0.1879E+01  0.1136E+02  0.1132E+02
      4.804  0.1385E+01  0.1483E+01  0.1163E+02  0.1161E+02
      5.000  0.8278E+00  0.8663E+00  0.1180E+02  0.1178E+02
      5.196  0.7866E+00  0.7807E+00  0.1195E+02  0.1194E+02
      5.392  0.9340E+00  0.9183E+00  0.1213E+02  0.1212E+02
      5.588  0.1629E+01  0.1569E+01  0.1246E+02  0.1243E+02
      5.784  0.2226E+01  0.2205E+01  0.1289E+02  0.1286E+02
      5.980  0.2347E+01  0.2357E+01  0.1335E+02  0.1332E+02
      6.176  0.2164E+01  0.2178E+01  0.1378E+02  0.1375E+02
      6.373  0.2232E+01  0.2237E+01  0.1422E+02  0.1419E+02
      6.569  0.2210E+01  0.2239E+01  0.1466E+02  0.1463E+02
      6.765  0.1501E+01  0.1541E+01  0.1495E+02  0.1494E+02
      6.961  0.1071E+01  0.1098E+01  0.1516E+02  0.1515E+02
      7.157  0.7096E+00  0.7188E+00  0.1530E+02  0.1530E+02
      7.353  0.6723E+00  0.6812E+00  0.1544E+02  0.1543E+02
      7.549  0.5414E+00  0.5406E+00  0.1554E+02  0.1554E+02
      7.745  0.5542E+00  0.5520E+00  0.1565E+02  0.1564E+02
      7.941  0.4912E+00  0.4970E+00  0.1575E+02  0.1574E+02
      8.137  0.3772E+00  0.3807E+00  0.1582E+02  0.1582E+02
      8.334  0.3632E+00  0.3669E+00  0.1589E+02  0.1589E+02
      8.530  0.3556E+00  0.3689E+00  0.1596E+02  0.1596E+02
      8.726  0.1273E+00  0.1386E+00  0.1599E+02  0.1599E+02
      8.922  0.4896E-01  0.4659E-01  0.1600E+02  0.1600E+02
      9.118  0.2998E-02  0.1013E-02  0.1600E+02  0.1600E+02
      9.314  0.0000E+00  0.0000E+00  0.1600E+02  0.1600E+02
      9.510  0.0000E+00  0.0000E+00  0.1600E+02  0.1600E+02
      9.706  0.0000E+00  0.0000E+00  0.1600E+02  0.1600E+02
      9.902  0.0000E+00  0.0000E+00  0.1600E+02  0.1600E+02
     10.098  0.0000E+00  0.0000E+00  0.1600E+02  0.1600E+02
     10.295  0.0000E+00  0.0000E+00  0.1600E+02  0.1600E+02
     10.491  0.0000E+00  0.0000E+00  0.1600E+02  0.1600E+02
     10.687  0.0000E+00  0.0000E+00  0.1600E+02  0.1600E+02
     10.883  0.0000E+00  0.0000E+00  0.1600E+02  0.1600E+02
     11.079  0.0000E+00  0.0000E+00  0.1600E+02  0.1600E+02
     11.275  0.0000E+00  0.0000E+00  0.1600E+02  0.1600E+02
     11.471  0.0000E+00  0.0000E+00  0.1600E+02  0.1600E+02
     11.47108780    -47.35809527  301      4.42963490      1.00000000
    -47.358  0.0000E+00  0.0000E+00  0.0000E+00  0.0000E+00  0.0000E+00  0.0000E+00  0.0000E+00  0.0000E+00  0.0000E+00  0.0000E+00  0.0000E+00  0.0000E+00  0.0000E+00  0.0000E+00  0.0000E+00  0.0000E+00  0.0000E+00  0.0000E+00
    -47.162  0.0000E+00  0.0000E+00  0.0000E+00  0.0000E+00  0.0000E+00  0.0000E+00  0.0000E+00  0.0000E+00  0.0000E+00  0.0000E+00  0.0000E+00  0.0000E+00  0.0000E+00  0.0000E+00  0.0000E+00  0.0000E+00  0.0000E+00  0.0000E+00
    -46.966  0.0000E+00  0.0000E+00  0.0000E+00  0.0000E+00  0.0000E+00  0.0000E+00  0.0000E+00  0.0000E+00  0.0000E+00  0.0000E+00  0.0000E+00  0.0000E+00  0.0000E+00  0.0000E+00  0.0000E+00  0.0000E+00  0.0000E+00  0.0000E+00
    -46.770  0.0000E+00  0.0000E+00  0.0000E+00  0.0000E+00  0.0000E+00  0.0000E+00  0.0000E+00  0.0000E+00  0.0000E+00  0.0000E+00  0.0000E+00  0.0000E+00  0.0000E+00  0.0000E+00  0.0000E+00  0.0000E+00  0.0000E+00  0.0000E+00
    -46.574  0.0000E+00  0.0000E+00  0.0000E+00  0.0000E+00  0.0000E+00  0.0000E+00  0.0000E+00  0.0000E+00  0.0000E+00  0.0000E+00  0.0000E+00  0.0000E+00  0.0000E+00  0.0000E+00  0.0000E+00  0.0000E+00  0.0000E+00  0.0000E+00
    -46.378  0.0000E+00  0.0000E+00  0.0000E+00  0.0000E+00  0.0000E+00  0.0000E+00  0.0000E+00  0.0000E+00  0.0000E+00  0.0000E+00  0.0000E+00  0.0000E+00  0.0000E+00  0.0000E+00  0.0000E+00  0.0000E+00  0.0000E+00  0.0000E+00
    -46.182  0.0000E+00  0.0000E+00  0.0000E+00  0.0000E+00  0.0000E+00  0.0000E+00  0.0000E+00  0.0000E+00  0.0000E+00  0.0000E+00  0.0000E+00  0.0000E+00  0.0000E+00  0.0000E+00  0.0000E+00  0.0000E+00  0.0000E+00  0.0000E+00
    -45.985  0.0000E+00  0.0000E+00  0.0000E+00  0.0000E+00  0.0000E+00  0.0000E+00  0.0000E+00  0.0000E+00  0.0000E+00  0.0000E+00  0.0000E+00  0.0000E+00  0.0000E+00  0.0000E+00  0.0000E+00  0.0000E+00  0.0000E+00  0.0000E+00
    -45.789  0.0000E+00  0.0000E+00  0.0000E+00  0.0000E+00  0.0000E+00  0.0000E+00  0.0000E+00  0.0000E+00  0.0000E+00  0.0000E+00  0.0000E+00  0.0000E+00  0.0000E+00  0.0000E+00  0.0000E+00  0.0000E+00  0.0000E+00  0.0000E+00
    -45.593  0.0000E+00  0.0000E+00  0.0000E+00  0.0000E+00  0.0000E+00  0.0000E+00  0.0000E+00  0.0000E+00  0.0000E+00  0.0000E+00  0.0000E+00  0.0000E+00  0.0000E+00  0.0000E+00  0.0000E+00  0.0000E+00  0.0000E+00  0.0000E+00
    -45.397  0.0000E+00  0.0000E+00  0.0000E+00  0.0000E+00  0.0000E+00  0.0000E+00  0.0000E+00  0.0000E+00  0.0000E+00  0.0000E+00  0.0000E+00  0.0000E+00  0.0000E+00  0.0000E+00  0.0000E+00  0.0000E+00  0.0000E+00  0.0000E+00
    -45.201  0.1316E-04  0.9508E-05  0.1013E-09  0.7170E-10  0.1307E-09  0.9218E-10  0.1013E-09  0.7170E-10  0.8789E-11  0.5293E-11  0.7278E-11  0.4045E-11  0.2130E-10  0.1543E-10  0.7278E-11  0.4045E-11  0.8789E-11  0.5293E-11
    -45.005  0.1366E-02  0.1155E-02  0.7464E-08  0.6311E-08  0.1067E-07  0.9019E-08  0.7464E-08  0.6311E-08  0.1387E-08  0.1200E-08  0.1803E-08  0.1500E-08  0.2515E-08  0.2234E-08  0.1803E-08  0.1500E-08  0.1387E-08  0.1200E-08
    -44.809  0.6673E-01  0.5656E-01  0.3650E-06  0.3091E-06  0.5218E-06  0.4419E-06  0.3650E-06  0.3091E-06  0.6799E-07  0.5888E-07  0.8845E-07  0.7363E-07  0.1230E-06  0.1094E-06  0.8845E-07  0.7363E-07  0.6799E-07  0.5888E-07
    -44.613  0.1792E+01  0.1623E+01  0.8740E-05  0.8009E-05  0.1301E-04  0.1188E-04  0.8740E-05  0.8009E-05  0.1995E-05  0.1841E-05  0.2806E-05  0.2474E-05  0.3410E-05  0.3227E-05  0.2806E-05  0.2474E-05  0.1995E-05  0.1841E-05
    -44.417  0.3023E+01  0.3168E+01  0.1061E-04  0.1128E-04  0.1716E-04  0.1818E-04  0.1061E-04  0.1128E-04  0.3317E-05  0.3570E-05  0.5456E-05  0.5624E-05  0.5642E-05  0.6156E-05  0.5456E-05  0.5624E-05  0.3317E-05  0.3570E-05
    -44.221  0.1851E+00  0.2198E+00  0.4873E-06  0.5962E-06  0.8344E-06  0.1016E-05  0.4873E-06  0.5962E-06  0.1914E-06  0.2330E-06  0.3450E-06  0.4023E-06  0.3306E-06  0.4057E-06  0.3450E-06  0.4023E-06  0.1914E-06  0.2330E-06
    -44.024  0.0000E+00  0.0000E+00  0.0000E+00  0.0000E+00  0.0000E+00  0.0000E+00  0.0000E+00  0.0000E+00  0.0000E+00  0.0000E+00  0.0000E+00  0.0000E+00  0.0000E+00  0.0000E+00  0.0000E+00  0.0000E+00  0.0000E+00  0.0000E+00
    -43.828  0.0000E+00  0.0000E+00  0.0000E+00  0.0000E+00  0.0000E+00  0.0000E+00  0.0000E+00  0.0000E+00  0.0000E+00  0.0000E+00  0.0000E+00  0.0000E+00  0.0000E+00  0.0000E+00  0.0000E+00  0.0000E+00  0.0000E+00  0.0000E+00
    -43.632  0.0000E+00  0.0000E+00  0.0000E+00  0.0000E+00  0.0000E+00  0.0000E+00  0.0000E+00  0.0000E+00  0.0000E+00  0.0000E+00  0.0000E+00  0.0000E+00  0.0000E+00  0.0000E+00  0.0000E+00  0.0000E+00  0.0000E+00  0.0000E+00
    -43.436  0.0000E+00  0.0000E+00  0.0000E+00  0.0000E+00  0.0000E+00  0.0000E+00  0.0000E+00  0.0000E+00  0.0000E+00  0.0000E+00  0.0000E+00  0.0000E+00  0.0000E+00  0.0000E+00  0.0000E+00  0.0000E+00  0.0000E+00  0.0000E+00
    -43.240  0.0000E+00  0.0000E+00  0.0000E+00  0.0000E+00  0.0000E+00  0.0000E+00  0.0000E+00  0.0000E+00  0.0000E+00  0.0000E+00  0.0000E+00  0.0000E+00  0.0000E+00  0.0000E+00  0.0000E+00  0.0000E+00  0.0000E+00  0.0000E+00
    -43.044  0.0000E+00  0.0000E+00  0.0000E+00  0.0000E+00  0.0000E+00  0.0000E+00  0.0000E+00  0.0000E+00  0.0000E+00  0.0000E+00  0.0000E+00  0.0000E+00  0.0000E+00  0.0000E+00  0.0000E+00  0.0000E+00  0.0000E+00  0.0000E+00
    -42.848  0.0000E+00  0.0000E+00  0.0000E+00  0.0000E+00  0.0000E+00  0.0000E+00  0.0000E+00  0.0000E+00  0.0000E+00  0.0000E+00  0.0000E+00  0.0000E+00  0.0000E+00  0.0000E+00  0.0000E+00  0.0000E+00  0.0000E+00  0.0000E+00
    -42.652  0.0000E+00  0.0000E+00  0.0000E+00  0.0000E+00  0.0000E+00  0.0000E+00  0.0000E+00  0.0000E+00  0.0000E+00  0.0000E+00  0.0000E+00  0.0000E+00  0.0000E+00  0.0000E+00  0.0000E+00  0.0000E+00  0.0000E+00  0.0000E+00
    -42.456  0.0000E+00  0.0000E+00  0.0000E+00  0.0000E+00  0.0000E+00  0.0000E+00  0.0000E+00  0.0000E+00  0.0000E+00  0.0000E+00  0.0000E+00  0.0000E+00  0.0000E+00  0.0000E+00  0.0000E+00  0.0000E+00  0.0000E+00  0.0000E+00
    -42.260  0.0000E+00  0.0000E+00  0.0000E+00  0.0000E+00  0.0000E+00  0.0000E+00  0.0000E+00  0.0000E+00  0.0000E+00  0.0000E+00  0.0000E+00  0.0000E+00  0.0000E+00  0.0000E+00  0.0000E+00  0.0000E+00  0.0000E+00  0.0000E+00
    -42.063  0.0000E+00  0.0000E+00  0.0000E+00  0.0000E+00  0.0000E+00  0.0000E+00  0.0000E+00  0.0000E+00  0.0000E+00  0.0000E+00  0.0000E+00  0.0000E+00  0.0000E+00  0.0000E+00  0.0000E+00  0.0000E+00  0.0000E+00  0.0000E+00
    -41.867  0.0000E+00  0.0000E+00  0.0000E+00  0.0000E+00  0.0000E+00  0.0000E+00  0.0000E+00  0.0000E+00  0.0000E+00  0.0000E+00  0.0000E+00  0.0000E+00  0.0000E+00  0.0000E+00  0.0000E+00  0.0000E+00  0.0000E+00  0.0000E+00
    -41.671  0.0000E+00  0.0000E+00  0.0000E+00  0.0000E+00  0.0000E+00  0.0000E+00  0.0000E+00  0.0000E+00  0.0000E+00  0.0000E+00  0.0000E+00  0.0000E+00  0.0000E+00  0.0000E+00  0.0000E+00  0.0000E+00  0.0000E+00  0.0000E+00
    -41.475  0.0000E+00  0.0000E+00  0.0000E+00  0.0000E+00  0.0000E+00  0.0000E+00  0.0000E+00  0.0000E+00  0.0000E+00  0.0000E+00  0.0000E+00  0.0000E+00  0.0000E+00  0.0000E+00  0.0000E+00  0.0000E+00  0.0000E+00  0.0000E+00
    -41.279  0.0000E+00  0.0000E+00  0.0000E+00  0.0000E+00  0.0000E+00  0.0000E+00  0.0000E+00  0.0000E+00  0.0000E+00  0.0000E+00  0.0000E+00  0.0000E+00  0.0000E+00  0.0000E+00  0.0000E+00  0.0000E+00  0.0000E+00  0.0000E+00
    -41.083  0.0000E+00  0.0000E+00  0.0000E+00  0.0000E+00  0.0000E+00  0.0000E+00  0.0000E+00  0.0000E+00  0.0000E+00  0.0000E+00  0.0000E+00  0.0000E+00  0.0000E+00  0.0000E+00  0.0000E+00  0.0000E+00  0.0000E+00  0.0000E+00
    -40.887  0.0000E+00  0.0000E+00  0.0000E+00  0.0000E+00  0.0000E+00  0.0000E+00  0.0000E+00  0.0000E+00  0.0000E+00  0.0000E+00  0.0000E+00  0.0000E+00  0.0000E+00  0.0000E+00  0.0000E+00  0.0000E+00  0.0000E+00  0.0000E+00
    -40.691  0.0000E+00  0.0000E+00  0.0000E+00  0.0000E+00  0.0000E+00  0.0000E+00  0.0000E+00  0.0000E+00  0.0000E+00  0.0000E+00  0.0000E+00  0.0000E+00  0.0000E+00  0.0000E+00  0.0000E+00  0.0000E+00  0.0000E+00  0.0000E+00
    -40.495  0.0000E+00  0.0000E+00  0.0000E+00  0.0000E+00  0.0000E+00  0.0000E+00  0.0000E+00  0.0000E+00  0.0000E+00  0.0000E+00  0.0000E+00  0.0000E+00  0.0000E+00  0.0000E+00  0.0000E+00  0.0000E+00  0.0000E+00  0.0000E+00
    -40.299  0.0000E+00  0.0000E+00  0.0000E+00  0.0000E+00  0.0000E+00  0.0000E+00  0.0000E+00  0.0000E+00  0.0000E+00  0.0000E+00  0.0000E+00  0.0000E+00  0.0000E+00  0.0000E+00  0.0000E+00  0.0000E+00  0.0000E+00  0.0000E+00
    -40.102  0.0000E+00  0.0000E+00  0.0000E+00  0.0000E+00  0.0000E+00  0.0000E+00  0.0000E+00  0.0000E+00  0.0000E+00  0.0000E+00  0.0000E+00  0.0000E+00  0.0000E+00  0.0000E+00  0.0000E+00  0.0000E+00  0.0000E+00  0.0000E+00
    -39.906  0.0000E+00  0.0000E+00  0.0000E+00  0.0000E+00  0.0000E+00  0.0000E+00  0.0000E+00  0.0000E+00  0.0000E+00  0.0000E+00  0.0000E+00  0.0000E+00  0.0000E+00  0.0000E+00  0.0000E+00  0.0000E+00  0.0000E+00  0.0000E+00
    -39.710  0.0000E+00  0.0000E+00  0.0000E+00  0.0000E+00  0.0000E+00  0.0000E+00  0.0000E+00  0.0000E+00  0.0000E+00  0.0000E+00  0.0000E+00  0.0000E+00  0.0000E+00  0.0000E+00  0.0000E+00  0.0000E+00  0.0000E+00  0.0000E+00
    -39.514  0.0000E+00  0.0000E+00  0.0000E+00  0.0000E+00  0.0000E+00  0.0000E+00  0.0000E+00  0.0000E+00  0.0000E+00  0.0000E+00  0.0000E+00  0.0000E+00  0.0000E+00  0.0000E+00  0.0000E+00  0.0000E+00  0.0000E+00  0.0000E+00
    -39.318  0.0000E+00  0.0000E+00  0.0000E+00  0.0000E+00  0.0000E+00  0.0000E+00  0.0000E+00  0.0000E+00  0.0000E+00  0.0000E+00  0.0000E+00  0.0000E+00  0.0000E+00  0.0000E+00  0.0000E+00  0.0000E+00  0.0000E+00  0.0000E+00
    -39.122  0.0000E+00  0.0000E+00  0.0000E+00  0.0000E+00  0.0000E+00  0.0000E+00  0.0000E+00  0.0000E+00  0.0000E+00  0.0000E+00  0.0000E+00  0.0000E+00  0.0000E+00  0.0000E+00  0.0000E+00  0.0000E+00  0.0000E+00  0.0000E+00
    -38.926  0.0000E+00  0.0000E+00  0.0000E+00  0.0000E+00  0.0000E+00  0.0000E+00  0.0000E+00  0.0000E+00  0.0000E+00  0.0000E+00  0.0000E+00  0.0000E+00  0.0000E+00  0.0000E+00  0.0000E+00  0.0000E+00  0.0000E+00  0.0000E+00
    -38.730  0.0000E+00  0.0000E+00  0.0000E+00  0.0000E+00  0.0000E+00  0.0000E+00  0.0000E+00  0.0000E+00  0.0000E+00  0.0000E+00  0.0000E+00  0.0000E+00  0.0000E+00  0.0000E+00  0.0000E+00  0.0000E+00  0.0000E+00  0.0000E+00
    -38.534  0.0000E+00  0.0000E+00  0.0000E+00  0.0000E+00  0.0000E+00  0.0000E+00  0.0000E+00  0.0000E+00  0.0000E+00  0.0000E+00  0.0000E+00  0.0000E+00  0.0000E+00  0.0000E+00  0.0000E+00  0.0000E+00  0.0000E+00  0.0000E+00
    -38.338  0.0000E+00  0.0000E+00  0.0000E+00  0.0000E+00  0.0000E+00  0.0000E+00  0.0000E+00  0.0000E+00  0.0000E+00  0.0000E+00  0.0000E+00  0.0000E+00  0.0000E+00  0.0000E+00  0.0000E+00  0.0000E+00  0.0000E+00  0.0000E+00
    -38.142  0.0000E+00  0.0000E+00  0.0000E+00  0.0000E+00  0.0000E+00  0.0000E+00  0.0000E+00  0.0000E+00  0.0000E+00  0.0000E+00  0.0000E+00  0.0000E+00  0.0000E+00  0.0000E+00  0.0000E+00  0.0000E+00  0.0000E+00  0.0000E+00
    -37.945  0.0000E+00  0.0000E+00  0.0000E+00  0.0000E+00  0.0000E+00  0.0000E+00  0.0000E+00  0.0000E+00  0.0000E+00  0.0000E+00  0.0000E+00  0.0000E+00  0.0000E+00  0.0000E+00  0.0000E+00  0.0000E+00  0.0000E+00  0.0000E+00
    -37.749  0.0000E+00  0.0000E+00  0.0000E+00  0.0000E+00  0.0000E+00  0.0000E+00  0.0000E+00  0.0000E+00  0.0000E+00  0.0000E+00  0.0000E+00  0.0000E+00  0.0000E+00  0.0000E+00  0.0000E+00  0.0000E+00  0.0000E+00  0.0000E+00
    -37.553  0.0000E+00  0.0000E+00  0.0000E+00  0.0000E+00  0.0000E+00  0.0000E+00  0.0000E+00  0.0000E+00  0.0000E+00  0.0000E+00  0.0000E+00  0.0000E+00  0.0000E+00  0.0000E+00  0.0000E+00  0.0000E+00  0.0000E+00  0.0000E+00