   2   2   1   0
  0.2616881E+02  0.3386419E-09  0.3386419E-09  0.5269894E-09  0.5000000E-15
  1.000000000000000E-004
  CAR 
 unknown system                          
      9.57744156    -48.94278082  301      3.33486035      1.00000000
    -48.943  0.0000E+00  0.0000E+00  0.0000E+00  0.0000E+00
    -48.748  0.0000E+00  0.0000E+00  0.0000E+00  0.0000E+00
    -48.553  0.0000E+00  0.0000E+00  0.0000E+00  0.0000E+00
    -48.358  0.0000E+00  0.0000E+00  0.0000E+00  0.0000E+00
    -48.163  0.0000E+00  0.0000E+00  0.0000E+00  0.0000E+00
    -47.967  0.0000E+00  0.0000E+00  0.0000E+00  0.0000E+00
    -47.772  0.0000E+00  0.0000E+00  0.0000E+00  0.0000E+00
    -47.577  0.0000E+00  0.0000E+00  0.0000E+00  0.0000E+00
    -47.382  0.0000E+00  0.0000E+00  0.0000E+00  0.0000E+00
    -47.187  0.0000E+00  0.0000E+00  0.0000E+00  0.0000E+00
    -46.992  0.0000E+00  0.0000E+00  0.0000E+00  0.0000E+00
    -46.797  0.1453E-03  0.0000E+00  0.2834E-04  0.0000E+00
    -46.602  0.7037E-02  0.1117E-02  0.1401E-02  0.2179E-03
    -46.407  0.3354E+00  0.5382E-01  0.6683E-01  0.1072E-01
    -46.212  0.6015E+01  0.2071E+01  0.1240E+01  0.4148E+00
    -46.017  0.3767E+01  0.7357E+01  0.1975E+01  0.1850E+01
    -45.822  0.5223E-02  0.7528E+00  0.2000E+01  0.1997E+01
    -45.627  0.0000E+00  0.0000E+00  0.2000E+01  0.2000E+01
    -45.432  0.0000E+00  0.0000E+00  0.2000E+01  0.2000E+01
    -45.237  0.0000E+00  0.0000E+00  0.2000E+01  0.2000E+01
    -45.041  0.0000E+00  0.0000E+00  0.2000E+01  0.2000E+01
    -44.846  0.0000E+00  0.0000E+00  0.2000E+01  0.2000E+01
    -44.651  0.0000E+00  0.0000E+00  0.2000E+01  0.2000E+01
    -44.456  0.0000E+00  0.0000E+00  0.2000E+01  0.2000E+01
    -44.261  0.0000E+00  0.0000E+00  0.2000E+01  0.2000E+01
    -44.066  0.0000E+00  0.0000E+00  0.2000E+01  0.2000E+01
    -43.871  0.0000E+00  0.0000E+00  0.2000E+01  0.2000E+01
    -43.676  0.0000E+00  0.0000E+00  0.2000E+01  0.2000E+01
    -43.481  0.0000E+00  0.0000E+00  0.2000E+01  0.2000E+01
    -43.286  0.0000E+00  0.0000E+00  0.2000E+01  0.2000E+01
    -43.091  0.0000E+00  0.0000E+00  0.2000E+01  0.2000E+01
    -42.896  0.0000E+00  0.0000E+00  0.2000E+01  0.2000E+01
    -42.701  0.0000E+00  0.0000E+00  0.2000E+01  0.2000E+01
    -42.506  0.0000E+00  0.0000E+00  0.2000E+01  0.2000E+01
    -42.310  0.0000E+00  0.0000E+00  0.2000E+01  0.2000E+01
    -42.115  0.0000E+00  0.0000E+00  0.2000E+01  0.2000E+01
    -41.920  0.0000E+00  0.0000E+00  0.2000E+01  0.2000E+01
    -41.725  0.0000E+00  0.0000E+00  0.2000E+01  0.2000E+01
    -41.530  0.0000E+00  0.0000E+00  0.2000E+01  0.2000E+01
    -41.335  0.0000E+00  0.0000E+00  0.2000E+01  0.2000E+01
    -41.140  0.0000E+00  0.0000E+00  0.2000E+01  0.2000E+01
    -40.945  0.0000E+00  0.0000E+00  0.2000E+01  0.2000E+01
    -40.750  0.0000E+00  0.0000E+00  0.2000E+01  0.2000E+01
    -40.555  0.0000E+00  0.0000E+00  0.2000E+01  0.2000E+01
    -40.360  0.0000E+00  0.0000E+00  0.2000E+01  0.2000E+01
    -40.165  0.0000E+00  0.0000E+00  0.2000E+01  0.2000E+01
    -39.970  0.0000E+00  0.0000E+00  0.2000E+01  0.2000E+01
    -39.775  0.0000E+00  0.0000E+00  0.2000E+01  0.2000E+01
    -39.580  0.0000E+00  0.0000E+00  0.2000E+01  0.2000E+01
    -39.384  0.0000E+00  0.0000E+00  0.2000E+01  0.2000E+01
    -39.189  0.0000E+00  0.0000E+00  0.2000E+01  0.2000E+01
    -38.994  0.0000E+00  0.0000E+00  0.2000E+01  0.2000E+01
    -38.799  0.0000E+00  0.0000E+00  0.2000E+01  0.2000E+01
    -38.604  0.0000E+00  0.0000E+00  0.2000E+01  0.2000E+01
    -38.409  0.0000E+00  0.0000E+00  0.2000E+01  0.2000E+01
    -38.214  0.0000E+00  0.0000E+00  0.2000E+01  0.2000E+01
    -38.019  0.0000E+00  0.0000E+00  0.2000E+01  0.2000E+01
    -37.824  0.0000E+00  0.0000E+00  0.2000E+01  0.2000E+01
    -37.629  0.0000E+00  0.0000E+00  0.2000E+01  0.2000E+01
    -37.434  0.0000E+00  0.0000E+00  0.2000E+01  0.2000E+01
    -37.239  0.0000E+00  0.0000E+00  0.2000E+01  0.2000E+01
    -37.044  0.0000E+00  0.0000E+00  0.2000E+01  0.2000E+01
    -36.849  0.0000E+00  0.0000E+00  0.2000E+01  0.2000E+01
    -36.654  0.0000E+00  0.0000E+00  0.2000E+01  0.2000E+01
    -36.458  0.0000E+00  0.0000E+00  0.2000E+01  0.2000E+01
    -36.263  0.0000E+00  0.0000E+00  0.2000E+01  0.2000E+01
    -36.068  0.0000E+00  0.0000E+00  0.2000E+01  0.2000E+01
    -35.873  0.0000E+00  0.0000E+00  0.2000E+01  0.2000E+01
    -35.678  0.0000E+00  0.0000E+00  0.2000E+01  0.2000E+01
    -35.483  0.0000E+00  0.0000E+00  0.2000E+01  0.2000E+01
    -35.288  0.0000E+00  0.0000E+00  0.2000E+01  0.2000E+01
    -35.093  0.0000E+00  0.0000E+00  0.2000E+01  0.2000E+01
    -34.898  0.0000E+00  0.0000E+00  0.2000E+01  0.2000E+01
    -34.703  0.0000E+00  0.0000E+00  0.2000E+01  0.2000E+01
    -34.508  0.0000E+00  0.0000E+00  0.2000E+01  0.2000E+01
    -34.313  0.0000E+00  0.0000E+00  0.2000E+01  0.2000E+01
    -34.118  0.0000E+00  0.0000E+00  0.2000E+01  0.2000E+01
    -33.923  0.0000E+00  0.0000E+00  0.2000E+01  0.2000E+01
    -33.728  0.0000E+00  0.0000E+00  0.2000E+01  0.2000E+01
    -33.532  0.0000E+00  0.0000E+00  0.2000E+01  0.2000E+01
    -33.337  0.0000E+00  0.0000E+00  0.2000E+01  0.2000E+01
    -33.142  0.0000E+00  0.0000E+00  0.2000E+01  0.2000E+01
    -32.947  0.0000E+00  0.0000E+00  0.2000E+01  0.2000E+01
    -32.752  0.0000E+00  0.0000E+00  0.2000E+01  0.2000E+01
    -32.557  0.0000E+00  0.0000E+00  0.2000E+01  0.2000E+01
    -32.362  0.0000E+00  0.0000E+00  0.2000E+01  0.2000E+01
    -32.167  0.0000E+00  0.0000E+00  0.2000E+01  0.2000E+01
    -31.972  0.0000E+00  0.0000E+00  0.2000E+01  0.2000E+01
    -31.777  0.0000E+00  0.0000E+00  0.2000E+01  0.2000E+01
    -31.582  0.0000E+00  0.0000E+00  0.2000E+01  0.2000E+01
    -31.387  0.0000E+00  0.0000E+00  0.2000E+01  0.2000E+01
    -31.192  0.0000E+00  0.0000E+00  0.2000E+01  0.2000E+01
    -30.997  0.0000E+00  0.0000E+00  0.2000E+01  0.2000E+01
    -30.802  0.0000E+00  0.0000E+00  0.2000E+01  0.2000E+01
    -30.606  0.0000E+00  0.0000E+00  0.2000E+01  0.2000E+01
    -30.411  0.0000E+00  0.0000E+00  0.2000E+01  0.2000E+01
    -30.216  0.0000E+00  0.0000E+00  0.2000E+01  0.2000E+01
    -30.021  0.0000E+00  0.0000E+00  0.2000E+01  0.2000E+01
    -29.826  0.0000E+00  0.0000E+00  0.2000E+01  0.2000E+01
    -29.631  0.0000E+00  0.0000E+00  0.2000E+01  0.2000E+01
    -29.436  0.0000E+00  0.0000E+00  0.2000E+01  0.2000E+01
    -29.241  0.0000E+00  0.0000E+00  0.2000E+01  0.2000E+01
    -29.046  0.0000E+00  0.0000E+00  0.2000E+01  0.2000E+01
    -28.851  0.0000E+00  0.0000E+00  0.2000E+01  0.2000E+01
    -28.656  0.0000E+00  0.0000E+00  0.2000E+01  0.2000E+01
    -28.461  0.0000E+00  0.0000E+00  0.2000E+01  0.2000E+01
    -28.266  0.0000E+00  0.0000E+00  0.2000E+01  0.2000E+01
    -28.071  0.0000E+00  0.0000E+00  0.2000E+01  0.2000E+01
    -27.876  0.0000E+00  0.0000E+00  0.2000E+01  0.2000E+01
    -27.680  0.0000E+00  0.0000E+00  0.2000E+01  0.2000E+01
    -27.485  0.0000E+00  0.0000E+00  0.2000E+01  0.2000E+01
    -27.290  0.0000E+00  0.0000E+00  0.2000E+01  0.2000E+01
    -27.095  0.0000E+00  0.0000E+00  0.2000E+01  0.2000E+01
    -26.900  0.0000E+00  0.0000E+00  0.2000E+01  0.2000E+01
    -26.705  0.0000E+00  0.0000E+00  0.2000E+01  0.2000E+01
    -26.510  0.0000E+00  0.0000E+00  0.2000E+01  0.2000E+01
    -26.315  0.0000E+00  0.0000E+00  0.2000E+01  0.2000E+01
    -26.120  0.0000E+00  0.0000E+00  0.2000E+01  0.2000E+01
    -25.925  0.0000E+00  0.0000E+00  0.2000E+01  0.2000E+01
    -25.730  0.0000E+00  0.0000E+00  0.2000E+01  0.2000E+01
    -25.535  0.1482E-03  0.1894E-05  0.2000E+01  0.2000E+01
    -25.340  0.8512E-02  0.1288E-02  0.2002E+01  0.2000E+01
    -25.145  0.3993E+00  0.6410E-01  0.2080E+01  0.2013E+01
    -24.949  0.7085E+01  0.2312E+01  0.3462E+01  0.2464E+01
    -24.754  0.1717E+02  0.1341E+02  0.6811E+01  0.5080E+01
    -24.559  0.5841E+01  0.1375E+02  0.7961E+01  0.7763E+01
    -24.364  0.6797E-01  0.1131E+01  0.8000E+01  0.7995E+01
    -24.169  0.0000E+00  0.0000E+00  0.8000E+01  0.8000E+01
    -23.974  0.0000E+00  0.0000E+00  0.8000E+01  0.8000E+01
    -23.779  0.0000E+00  0.0000E+00  0.8000E+01  0.8000E+01
    -23.584  0.0000E+00  0.0000E+00  0.8000E+01  0.8000E+01
    -23.389  0.0000E+00  0.0000E+00  0.8000E+01  0.8000E+01
    -23.194  0.0000E+00  0.0000E+00  0.8000E+01  0.8000E+01
    -22.999  0.0000E+00  0.0000E+00  0.8000E+01  0.8000E+01
    -22.804  0.0000E+00  0.0000E+00  0.8000E+01  0.8000E+01
    -22.609  0.0000E+00  0.0000E+00  0.8000E+01  0.8000E+01
    -22.414  0.0000E+00  0.0000E+00  0.8000E+01  0.8000E+01
    -22.219  0.0000E+00  0.0000E+00  0.8000E+01  0.8000E+01
    -22.023  0.0000E+00  0.0000E+00  0.8000E+01  0.8000E+01
    -21.828  0.0000E+00  0.0000E+00  0.8000E+01  0.8000E+01
    -21.633  0.0000E+00  0.0000E+00  0.8000E+01  0.8000E+01
    -21.438  0.0000E+00  0.0000E+00  0.8000E+01  0.8000E+01
    -21.243  0.0000E+00  0.0000E+00  0.8000E+01  0.8000E+01
    -21.048  0.0000E+00  0.0000E+00  0.8000E+01  0.8000E+01
    -20.853  0.0000E+00  0.0000E+00  0.8000E+01  0.8000E+01
    -20.658  0.0000E+00  0.0000E+00  0.8000E+01  0.8000E+01
    -20.463  0.0000E+00  0.0000E+00  0.8000E+01  0.8000E+01
    -20.268  0.0000E+00  0.0000E+00  0.8000E+01  0.8000E+01
    -20.073  0.0000E+00  0.0000E+00  0.8000E+01  0.8000E+01
    -19.878  0.0000E+00  0.0000E+00  0.8000E+01  0.8000E+01
    -19.683  0.0000E+00  0.0000E+00  0.8000E+01  0.8000E+01
    -19.488  0.0000E+00  0.0000E+00  0.8000E+01  0.8000E+01
    -19.293  0.0000E+00  0.0000E+00  0.8000E+01  0.8000E+01
    -19.097  0.0000E+00  0.0000E+00  0.8000E+01  0.8000E+01
    -18.902  0.0000E+00  0.0000E+00  0.8000E+01  0.8000E+01
    -18.707  0.0000E+00  0.0000E+00  0.8000E+01  0.8000E+01
    -18.512  0.0000E+00  0.0000E+00  0.8000E+01  0.8000E+01
    -18.317  0.0000E+00  0.0000E+00  0.8000E+01  0.8000E+01
    -18.122  0.0000E+00  0.0000E+00  0.8000E+01  0.8000E+01
    -17.927  0.0000E+00  0.0000E+00  0.8000E+01  0.8000E+01
    -17.732  0.0000E+00  0.0000E+00  0.8000E+01  0.8000E+01
    -17.537  0.0000E+00  0.0000E+00  0.8000E+01  0.8000E+01
    -17.342  0.0000E+00  0.0000E+00  0.8000E+01  0.8000E+01
    -17.147  0.0000E+00  0.0000E+00  0.8000E+01  0.8000E+01
    -16.952  0.0000E+00  0.0000E+00  0.8000E+01  0.8000E+01
    -16.757  0.0000E+00  0.0000E+00  0.8000E+01  0.8000E+01
    -16.562  0.0000E+00  0.0000E+00  0.8000E+01  0.8000E+01
    -16.367  0.0000E+00  0.0000E+00  0.8000E+01  0.8000E+01
    -16.171  0.0000E+00  0.0000E+00  0.8000E+01  0.8000E+01
    -15.976  0.0000E+00  0.0000E+00  0.8000E+01  0.8000E+01
    -15.781  0.0000E+00  0.0000E+00  0.8000E+01  0.8000E+01
    -15.586  0.0000E+00  0.0000E+00  0.8000E+01  0.8000E+01
    -15.391  0.0000E+00  0.0000E+00  0.8000E+01  0.8000E+01
    -15.196  0.0000E+00  0.0000E+00  0.8000E+01  0.8000E+01
    -15.001  0.0000E+00  0.0000E+00  0.8000E+01  0.8000E+01
    -14.806  0.0000E+00  0.0000E+00  0.8000E+01  0.8000E+01
    -14.611  0.0000E+00  0.0000E+00  0.8000E+01  0.8000E+01
    -14.416  0.0000E+00  0.0000E+00  0.8000E+01  0.8000E+01
    -14.221  0.0000E+00  0.0000E+00  0.8000E+01  0.8000E+01
    -14.026  0.0000E+00  0.0000E+00  0.8000E+01  0.8000E+01
    -13.831  0.0000E+00  0.0000E+00  0.8000E+01  0.8000E+01
    -13.636  0.0000E+00  0.0000E+00  0.8000E+01  0.8000E+01
    -13.441  0.0000E+00  0.0000E+00  0.8000E+01  0.8000E+01
    -13.245  0.0000E+00  0.0000E+00  0.8000E+01  0.8000E+01
    -13.050  0.0000E+00  0.0000E+00  0.8000E+01  0.8000E+01
    -12.855  0.0000E+00  0.0000E+00  0.8000E+01  0.8000E+01
    -12.660  0.0000E+00  0.0000E+00  0.8000E+01  0.8000E+01
    -12.465  0.0000E+00  0.0000E+00  0.8000E+01  0.8000E+01
    -12.270  0.0000E+00  0.0000E+00  0.8000E+01  0.8000E+01
    -12.075  0.0000E+00  0.0000E+00  0.8000E+01  0.8000E+01
    -11.880  0.0000E+00  0.0000E+00  0.8000E+01  0.8000E+01
    -11.685  0.0000E+00  0.0000E+00  0.8000E+01  0.8000E+01
    -11.490  0.0000E+00  0.0000E+00  0.8000E+01  0.8000E+01
    -11.295  0.0000E+00  0.0000E+00  0.8000E+01  0.8000E+01
    -11.100  0.0000E+00  0.0000E+00  0.8000E+01  0.8000E+01
    -10.905  0.0000E+00  0.0000E+00  0.8000E+01  0.8000E+01
    -10.710  0.0000E+00  0.0000E+00  0.8000E+01  0.8000E+01
    -10.515  0.0000E+00  0.0000E+00  0.8000E+01  0.8000E+01
    -10.319  0.0000E+00  0.0000E+00  0.8000E+01  0.8000E+01
    -10.124  0.0000E+00  0.0000E+00  0.8000E+01  0.8000E+01
     -9.929  0.0000E+00  0.0000E+00  0.8000E+01  0.8000E+01
     -9.734  0.0000E+00  0.0000E+00  0.8000E+01  0.8000E+01
     -9.539  0.0000E+00  0.0000E+00  0.8000E+01  0.8000E+01
     -9.344  0.0000E+00  0.0000E+00  0.8000E+01  0.8000E+01
     -9.149  0.0000E+00  0.0000E+00  0.8000E+01  0.8000E+01
     -8.954  0.0000E+00  0.0000E+00  0.8000E+01  0.8000E+01
     -8.759  0.0000E+00  0.0000E+00  0.8000E+01  0.8000E+01
     -8.564  0.0000E+00  0.0000E+00  0.8000E+01  0.8000E+01
     -8.369  0.0000E+00  0.0000E+00  0.8000E+01  0.8000E+01
     -8.174  0.0000E+00  0.0000E+00  0.8000E+01  0.8000E+01
     -7.979  0.0000E+00  0.0000E+00  0.8000E+01  0.8000E+01
     -7.784  0.0000E+00  0.0000E+00  0.8000E+01  0.8000E+01
     -7.588  0.0000E+00  0.0000E+00  0.8000E+01  0.8000E+01
     -7.393  0.0000E+00  0.0000E+00  0.8000E+01  0.8000E+01
     -7.198  0.0000E+00  0.0000E+00  0.8000E+01  0.8000E+01
     -7.003  0.0000E+00  0.0000E+00  0.8000E+01  0.8000E+01
     -6.808  0.0000E+00  0.0000E+00  0.8000E+01  0.8000E+01
     -6.613  0.0000E+00  0.0000E+00  0.8000E+01  0.8000E+01
     -6.418  0.0000E+00  0.0000E+00  0.8000E+01  0.8000E+01
     -6.223  0.0000E+00  0.0000E+00  0.8000E+01  0.8000E+01
     -6.028  0.0000E+00  0.0000E+00  0.8000E+01  0.8000E+01
     -5.833  0.0000E+00  0.0000E+00  0.8000E+01  0.8000E+01
     -5.638  0.0000E+00  0.0000E+00  0.8000E+01  0.8000E+01
     -5.443  0.0000E+00  0.0000E+00  0.8000E+01  0.8000E+01
     -5.248  0.0000E+00  0.0000E+00  0.8000E+01  0.8000E+01
     -5.053  0.0000E+00  0.0000E+00  0.8000E+01  0.8000E+01
     -4.858  0.0000E+00  0.0000E+00  0.8000E+01  0.8000E+01
     -4.662  0.0000E+00  0.0000E+00  0.8000E+01  0.8000E+01
     -4.467  0.0000E+00  0.0000E+00  0.8000E+01  0.8000E+01
     -4.272  0.0000E+00  0.0000E+00  0.8000E+01  0.8000E+01
     -4.077  0.0000E+00  0.0000E+00  0.8000E+01  0.8000E+01
     -3.882  0.0000E+00  0.0000E+00  0.8000E+01  0.8000E+01
     -3.687  0.0000E+00  0.0000E+00  0.8000E+01  0.8000E+01
     -3.492  0.0000E+00  0.0000E+00  0.8000E+01  0.8000E+01
     -3.297  0.0000E+00  0.0000E+00  0.8000E+01  0.8000E+01
     -3.102  0.0000E+00  0.0000E+00  0.8000E+01  0.8000E+01
     -2.907  0.0000E+00  0.0000E+00  0.8000E+01  0.8000E+01
     -2.712  0.0000E+00  0.0000E+00  0.8000E+01  0.8000E+01
     -2.517  0.0000E+00  0.0000E+00  0.8000E+01  0.8000E+01
     -2.322  0.5573E-07  0.0000E+00  0.8000E+01  0.8000E+01
     -2.127  0.5859E-05  0.5199E-07  0.8000E+01  0.8000E+01
     -1.932  0.2822E-03  0.5466E-05  0.8000E+01  0.8000E+01
     -1.736  0.8411E-02  0.2633E-03  0.8002E+01  0.8000E+01
     -1.541  0.4901E-01  0.8011E-02  0.8011E+01  0.8002E+01
     -1.346  0.7878E-01  0.4838E-01  0.8027E+01  0.8011E+01
     -1.151  0.1068E+00  0.7767E-01  0.8048E+01  0.8026E+01
     -0.956  0.1220E+00  0.1074E+00  0.8071E+01  0.8047E+01
     -0.761  0.1533E+00  0.1205E+00  0.8101E+01  0.8071E+01
     -0.566  0.1788E+00  0.1539E+00  0.8136E+01  0.8101E+01
     -0.371  0.1523E+00  0.1790E+00  0.8166E+01  0.8136E+01
     -0.176  0.2602E+00  0.1511E+00  0.8217E+01  0.8165E+01
      0.019  0.2129E+00  0.2606E+00  0.8259E+01  0.8216E+01
      0.214  0.2288E+00  0.2132E+00  0.8303E+01  0.8258E+01
      0.409  0.3128E+00  0.2302E+00  0.8365E+01  0.8303E+01
      0.604  0.3091E+00  0.3098E+00  0.8425E+01  0.8364E+01
      0.799  0.3573E+00  0.3144E+00  0.8495E+01  0.8425E+01
      0.994  0.3377E+00  0.3581E+00  0.8561E+01  0.8495E+01
      1.190  0.4613E+00  0.3345E+00  0.8651E+01  0.8561E+01
      1.385  0.5655E+00  0.4723E+00  0.8762E+01  0.8653E+01
      1.580  0.5193E+00  0.5691E+00  0.8864E+01  0.8764E+01
      1.775  0.8521E+00  0.5387E+00  0.9030E+01  0.8870E+01
      1.970  0.8132E+00  0.8364E+00  0.9189E+01  0.9033E+01
      2.165  0.8245E+00  0.9444E+00  0.9351E+01  0.9218E+01
      2.360  0.9437E+00  0.8522E+00  0.9536E+01  0.9385E+01
      2.555  0.1058E+01  0.1045E+01  0.9743E+01  0.9590E+01
      2.750  0.1277E+01  0.1099E+01  0.9993E+01  0.9805E+01
      2.945  0.2006E+01  0.1309E+01  0.1039E+02  0.1006E+02
      3.140  0.2077E+01  0.1666E+01  0.1079E+02  0.1039E+02
      3.335  0.2232E+01  0.1974E+01  0.1123E+02  0.1077E+02
      3.530  0.1610E+01  0.2162E+01  0.1154E+02  0.1120E+02
      3.725  0.1048E+01  0.1850E+01  0.1175E+02  0.1156E+02
      3.920  0.8567E+00  0.1116E+01  0.1192E+02  0.1178E+02
      4.116  0.1152E+01  0.9616E+00  0.1214E+02  0.1197E+02
      4.311  0.2046E+01  0.1379E+01  0.1254E+02  0.1224E+02
      4.506  0.2870E+01  0.2523E+01  0.1310E+02  0.1273E+02
      4.701  0.2532E+01  0.2874E+01  0.1360E+02  0.1329E+02
      4.896  0.2579E+01  0.2545E+01  0.1411E+02  0.1379E+02
      5.091  0.2660E+01  0.2755E+01  0.1463E+02  0.1433E+02
      5.286  0.1836E+01  0.2426E+01  0.1499E+02  0.1481E+02
      5.481  0.1190E+01  0.1517E+01  0.1522E+02  0.1511E+02
      5.676  0.8575E+00  0.9632E+00  0.1539E+02  0.1529E+02
      5.871  0.7327E+00  0.8390E+00  0.1553E+02  0.1546E+02
      6.066  0.7011E+00  0.6809E+00  0.1567E+02  0.1559E+02
      6.261  0.5730E+00  0.6656E+00  0.1578E+02  0.1572E+02
      6.456  0.4727E+00  0.5133E+00  0.1588E+02  0.1582E+02
      6.651  0.4443E+00  0.4587E+00  0.1596E+02  0.1591E+02
      6.846  0.1630E+00  0.3459E+00  0.1600E+02  0.1598E+02
      7.042  0.1901E-01  0.8770E-01  0.1600E+02  0.1600E+02
      7.237  0.0000E+00  0.4189E-02  0.1600E+02  0.1600E+02
      7.432  0.0000E+00  0.0000E+00  0.1600E+02  0.1600E+02
      7.627  0.0000E+00  0.0000E+00  0.1600E+02  0.1600E+02
      7.822  0.0000E+00  0.0000E+00  0.1600E+02  0.1600E+02
      8.017  0.0000E+00  0.0000E+00  0.1600E+02  0.1600E+02
      8.212  0.0000E+00  0.0000E+00  0.1600E+02  0.1600E+02
      8.407  0.0000E+00  0.0000E+00  0.1600E+02  0.1600E+02
      8.602  0.0000E+00  0.0000E+00  0.1600E+02  0.1600E+02
      8.797  0.0000E+00  0.0000E+00  0.1600E+02  0.1600E+02
      8.992  0.0000E+00  0.0000E+00  0.1600E+02  0.1600E+02
      9.187  0.0000E+00  0.0000E+00  0.1600E+02  0.1600E+02
      9.382  0.0000E+00  0.0000E+00  0.1600E+02  0.1600E+02
      9.577  0.0000E+00  0.0000E+00  0.1600E+02  0.1600E+02
      9.57744156    -48.94278082  301      3.33486035      1.00000000
    -48.943  0.0000E+00  0.0000E+00  0.0000E+00  0.0000E+00  0.0000E+00  0.0000E+00  0.0000E+00  0.0000E+00  0.0000E+00  0.0000E+00  0.0000E+00  0.0000E+00  0.0000E+00  0.0000E+00  0.0000E+00  0.0000E+00  0.0000E+00  0.0000E+00
    -48.748  0.0000E+00  0.0000E+00  0.0000E+00  0.0000E+00  0.0000E+00  0.0000E+00  0.0000E+00  0.0000E+00  0.0000E+00  0.0000E+00  0.0000E+00  0.0000E+00  0.0000E+00  0.0000E+00  0.0000E+00  0.0000E+00  0.0000E+00  0.0000E+00
    -48.553  0.0000E+00  0.0000E+00  0.0000E+00  0.0000E+00  0.0000E+00  0.0000E+00  0.0000E+00  0.0000E+00  0.0000E+00  0.0000E+00  0.0000E+00  0.0000E+00  0.0000E+00  0.0000E+00  0.0000E+00  0.0000E+00  0.0000E+00  0.0000E+00
    -48.358  0.0000E+00  0.0000E+00  0.0000E+00  0.0000E+00  0.0000E+00  0.0000E+00  0.0000E+00  0.0000E+00  0.0000E+00  0.0000E+00  0.0000E+00  0.0000E+00  0.0000E+00  0.0000E+00  0.0000E+00  0.0000E+00  0.0000E+00  0.0000E+00
    -48.163  0.0000E+00  0.0000E+00  0.0000E+00  0.0000E+00  0.0000E+00  0.0000E+00  0.0000E+00  0.0000E+00  0.0000E+00  0.0000E+00  0.0000E+00  0.0000E+00  0.0000E+00  0.0000E+00  0.0000E+00  0.0000E+00  0.0000E+00  0.0000E+00
    -47.967  0.0000E+00  0.0000E+00  0.0000E+00  0.0000E+00  0.0000E+00  0.0000E+00  0.0000E+00  0.0000E+00  0.0000E+00  0.0000E+00  0.0000E+00  0.0000E+00  0.0000E+00  0.0000E+00  0.0000E+00  0.0000E+00  0.0000E+00  0.0000E+00
    -47.772  0.0000E+00  0.0000E+00  0.0000E+00  0.0000E+00  0.0000E+00  0.0000E+00  0.0000E+00  0.0000E+00  0.0000E+00  0.0000E+00  0.0000E+00  0.0000E+00  0.0000E+00  0.0000E+00  0.0000E+00  0.0000E+00  0.0000E+00  0.0000E+00
    -47.577  0.0000E+00  0.0000E+00  0.0000E+00  0.0000E+00  0.0000E+00  0.0000E+00  0.0000E+00  0.0000E+00  0.0000E+00  0.0000E+00  0.0000E+00  0.0000E+00  0.0000E+00  0.0000E+00  0.0000E+00  0.0000E+00  0.0000E+00  0.0000E+00
    -47.382  0.0000E+00  0.0000E+00  0.0000E+00  0.0000E+00  0.0000E+00  0.0000E+00  0.0000E+00  0.0000E+00  0.0000E+00  0.0000E+00  0.0000E+00  0.0000E+00  0.0000E+00  0.0000E+00  0.0000E+00  0.0000E+00  0.0000E+00  0.0000E+00
    -47.187  0.0000E+00  0.0000E+00  0.0000E+00  0.0000E+00  0.0000E+00  0.0000E+00  0.0000E+00  0.0000E+00  0.0000E+00  0.0000E+00  0.0000E+00  0.0000E+00  0.0000E+00  0.0000E+00  0.0000E+00  0.0000E+00  0.0000E+00  0.0000E+00
    -46.992  0.0000E+00  0.0000E+00  0.0000E+00  0.0000E+00  0.0000E+00  0.0000E+00  0.0000E+00  0.0000E+00  0.0000E+00  0.0000E+00  0.0000E+00  0.0000E+00  0.0000E+00  0.0000E+00  0.0000E+00  0.0000E+00  0.0000E+00  0.0000E+00
    -46.797  0.7237E-04  0.0000E+00  0.7031E-10  0.0000E+00  0.1079E-09  0.0000E+00  0.7031E-10  0.0000E+00  0.1590E-10  0.0000E+00  0.2320E-10  0.0000E+00  0.2950E-10  0.0000E+00  0.2320E-10  0.0000E+00  0.1590E-10  0.0000E+00
    -46.602  0.3505E-02  0.5563E-03  0.3405E-08  0.5322E-09  0.5226E-08  0.8212E-09  0.3405E-08  0.5322E-09  0.7702E-09  0.1222E-09  0.1124E-08  0.1764E-09  0.1429E-08  0.3086E-09  0.1124E-08  0.1764E-09  0.7702E-09  0.1222E-09
    -46.407  0.1670E+00  0.2680E-01  0.1614E-06  0.2562E-07  0.2482E-06  0.3954E-07  0.1614E-06  0.2562E-07  0.3677E-07  0.5892E-08  0.5381E-07  0.8508E-08  0.6811E-07  0.1487E-07  0.5381E-07  0.8508E-08  0.3677E-07  0.5892E-08
    -46.212  0.2996E+01  0.1032E+01  0.2615E-05  0.9537E-06  0.4141E-05  0.1487E-05  0.2615E-05  0.9537E-06  0.6660E-06  0.2288E-06  0.1027E-05  0.3363E-06  0.1215E-05  0.5671E-06  0.1027E-05  0.3363E-06  0.6660E-06  0.2288E-06
    -46.017  0.1877E+01  0.3665E+01  0.1400E-05  0.2919E-05  0.2306E-05  0.4737E-05  0.1400E-05  0.2919E-05  0.4086E-06  0.8109E-06  0.6760E-06  0.1279E-05  0.7442E-06  0.1922E-05  0.6760E-06  0.1280E-05  0.4086E-06  0.8109E-06
    -45.822  0.2603E-02  0.3750E+00  0.8050E-09  0.2628E-06  0.1173E-09  0.4394E-06  0.8050E-09  0.2628E-06  0.4142E-09  0.8088E-07  0.6316E-10  0.1345E-06  0.1921E-09  0.1877E-06  0.6316E-10  0.1345E-06  0.4142E-09  0.8088E-07
    -45.627  0.0000E+00  0.0000E+00  0.0000E+00  0.0000E+00  0.0000E+00  0.0000E+00  0.0000E+00  0.0000E+00  0.0000E+00  0.0000E+00  0.0000E+00  0.0000E+00  0.0000E+00  0.0000E+00  0.0000E+00  0.0000E+00  0.0000E+00  0.0000E+00
    -45.432  0.0000E+00  0.0000E+00  0.0000E+00  0.0000E+00  0.0000E+00  0.0000E+00  0.0000E+00  0.0000E+00  0.0000E+00  0.0000E+00  0.0000E+00  0.0000E+00  0.0000E+00  0.0000E+00  0.0000E+00  0.0000E+00  0.0000E+00  0.0000E+00
    -45.237  0.0000E+00  0.0000E+00  0.0000E+00  0.0000E+00  0.0000E+00  0.0000E+00  0.0000E+00  0.0000E+00  0.0000E+00  0.0000E+00  0.0000E+00  0.0000E+00  0.0000E+00  0.0000E+00  0.0000E+00  0.0000E+00  0.0000E+00  0.0000E+00
    -45.041  0.0000E+00  0.0000E+00  0.0000E+00  0.0000E+00  0.0000E+00  0.0000E+00  0.0000E+00  0.0000E+00  0.0000E+00  0.0000E+00  0.0000E+00  0.0000E+00  0.0000E+00  0.0000E+00  0.0000E+00  0.0000E+00  0.0000E+00  0.0000E+00
    -44.846  0.0000E+00  0.0000E+00  0.0000E+00  0.0000E+00  0.0000E+00  0.0000E+00  0.0000E+00  0.0000E+00  0.0000E+00  0.0000E+00  0.0000E+00  0.0000E+00  0.0000E+00  0.0000E+00  0.0000E+00  0.0000E+00  0.0000E+00  0.0000E+00
    -44.651  0.0000E+00  0.0000E+00  0.0000E+00  0.0000E+00  0.0000E+00  0.0000E+00  0.0000E+00  0.0000E+00  0.0000E+00  0.0000E+00  0.0000E+00  0.0000E+00  0.0000E+00  0.0000E+00  0.0000E+00  0.0000E+00  0.0000E+00  0.0000E+00
    -44.456  0.0000E+00  0.0000E+00  0.0000E+00  0.0000E+00  0.0000E+00  0.0000E+00  0.0000E+00  0.0000E+00  0.0000E+00  0.0000E+00  0.0000E+00  0.0000E+00  0.0000E+00  0.0000E+00  0.0000E+00  0.0000E+00  0.0000E+00  0.0000E+00
    -44.261  0.0000E+00  0.0000E+00  0.0000E+00  0.0000E+00  0.0000E+00  0.0000E+00  0.0000E+00  0.0000E+00  0.0000E+00  0.0000E+00  0.0000E+00  0.0000E+00  0.0000E+00  0.0000E+00  0.0000E+00  0.0000E+00  0.0000E+00  0.0000E+00
    -44.066  0.0000E+00  0.0000E+00  0.0000E+00  0.0000E+00  0.0000E+00  0.0000E+00  0.0000E+00  0.0000E+00  0.0000E+00  0.0000E+00  0.0000E+00  0.0000E+00  0.0000E+00  0.0000E+00  0.0000E+00  0.0000E+00  0.0000E+00  0.0000E+00
    -43.871  0.0000E+00  0.0000E+00  0.0000E+00  0.0000E+00  0.0000E+00  0.0000E+00  0.0000E+00  0.0000E+00  0.0000E+00  0.0000E+00  0.0000E+00  0.0000E+00  0.0000E+00  0.0000E+00  0.0000E+00  0.0000E+00  0.0000E+00  0.0000E+00
    -43.676  0.0000E+00  0.0000E+00  0.0000E+00  0.0000E+00  0.0000E+00  0.0000E+00  0.0000E+00  0.0000E+00  0.0000E+00  0.0000E+00  0.0000E+00  0.0000E+00  0.0000E+00  0.0000E+00  0.0000E+00  0.0000E+00  0.0000E+00  0.0000E+00
    -43.481  0.0000E+00  0.0000E+00  0.0000E+00  0.0000E+00  0.0000E+00  0.0000E+00  0.0000E+00  0.0000E+00  0.0000E+00  0.0000E+00  0.0000E+00  0.0000E+00  0.0000E+00  0.0000E+00  0.0000E+00  0.0000E+00  0.0000E+00  0.0000E+00
    -43.286  0.0000E+00  0.0000E+00  0.0000E+00  0.0000E+00  0.0000E+00  0.0000E+00  0.0000E+00  0.0000E+00  0.0000E+00  0.0000E+00  0.0000E+00  0.0000E+00  0.0000E+00  0.0000E+00  0.0000E+00  0.0000E+00  0.0000E+00  0.0000E+00
    -43.091  0.0000E+00  0.0000E+00  0.0000E+00  0.0000E+00  0.0000E+00  0.0000E+00  0.0000E+00  0.0000E+00  0.0000E+00  0.0000E+00  0.0000E+00  0.0000E+00  0.0000E+00  0.0000E+00  0.0000E+00  0.0000E+00  0.0000E+00  0.0000E+00
    -42.896  0.0000E+00  0.0000E+00  0.0000E+00  0.0000E+00  0.0000E+00  0.0000E+00  0.0000E+00  0.0000E+00  0.0000E+00  0.0000E+00  0.0000E+00  0.0000E+00  0.0000E+00  0.0000E+00  0.0000E+00  0.0000E+00  0.0000E+00  0.0000E+00
    -42.701  0.0000E+00  0.0000E+00  0.0000E+00  0.0000E+00  0.0000E+00  0.0000E+00  0.0000E+00  0.0000E+00  0.0000E+00  0.0000E+00  0.0000E+00  0.0000E+00  0.0000E+00  0.0000E+00  0.0000E+00  0.0000E+00  0.0000E+00  0.0000E+00
    -42.506  0.0000E+00  0.0000E+00  0.0000E+00  0.0000E+00  0.0000E+00  0.0000E+00  0.0000E+00  0.0000E+00  0.0000E+00  0.0000E+00  0.0000E+00  0.0000E+00  0.0000E+00  0.0000E+00  0.0000E+00  0.0000E+00  0.0000E+00  0.0000E+00
    -42.310  0.0000E+00  0.0000E+00  0.0000E+00  0.0000E+00  0.0000E+00  0.0000E+00  0.0000E+00  0.0000E+00  0.0000E+00  0.0000E+00  0.0000E+00  0.0000E+00  0.0000E+00  0.0000E+00  0.0000E+00  0.0000E+00  0.0000E+00  0.0000E+00
    -42.115  0.0000E+00  0.0000E+00  0.0000E+00  0.0000E+00  0.0000E+00  0.0000E+00  0.0000E+00  0.0000E+00  0.0000E+00  0.0000E+00  0.0000E+00  0.0000E+00  0.0000E+00  0.0000E+00  0.0000E+00  0.0000E+00  0.0000E+00  0.0000E+00
    -41.920  0.0000E+00  0.0000E+00  0.0000E+00  0.0000E+00  0.0000E+00  0.0000E+00  0.0000E+00  0.0000E+00  0.0000E+00  0.0000E+00  0.0000E+00  0.0000E+00  0.0000E+00  0.0000E+00  0.0000E+00  0.0000E+00  0.0000E+00  0.0000E+00
    -41.725  0.0000E+00  0.0000E+00  0.0000E+00  0.0000E+00  0.0000E+00  0.0000E+00  0.0000E+00  0.0000E+00  0.0000E+00  0.0000E+00  0.0000E+00  0.0000E+00  0.0000E+00  0.0000E+00  0.0000E+00  0.0000E+00  0.0000E+00  0.0000E+00
    -41.530  0.0000E+00  0.0000E+00  0.0000E+00  0.0000E+00  0.0000E+00  0.0000E+00  0.0000E+00  0.0000E+00  0.0000E+00  0.0000E+00  0.0000E+00  0.0000E+00  0.0000E+00  0.0000E+00  0.0000E+00  0.0000E+00  0.0000E+00  0.0000E+00
    -41.335  0.0000E+00  0.0000E+00  0.0000E+00  0.0000E+00  0.0000E+00  0.0000E+00  0.0000E+00  0.0000E+00  0.0000E+00  0.0000E+00  0.0000E+00  0.0000E+00  0.0000E+00  0.0000E+00  0.0000E+00  0.0000E+00  0.0000E+00  0.0000E+00
    -41.140  0.0000E+00  0.0000E+00  0.0000E+00  0.0000E+00  0.0000E+00  0.0000E+00  0.0000E+00  0.0000E+00  0.0000E+00  0.0000E+00  0.0000E+00  0.0000E+00  0.0000E+00  0.0000E+00  0.0000E+00  0.0000E+00  0.0000E+00  0.0000E+00
    -40.945  0.0000E+00  0.0000E+00  0.0000E+00  0.0000E+00  0.0000E+00  0.0000E+00  0.0000E+00  0.0000E+00  0.0000E+00  0.0000E+00  0.0000E+00  0.0000E+00  0.0000E+00  0.0000E+00  0.0000E+00  0.0000E+00  0.0000E+00  0.0000E+00
    -40.750  0.0000E+00  0.0000E+00  0.0000E+00  0.0000E+00  0.0000E+00  0.0000E+00  0.0000E+00  0.0000E+00  0.0000E+00  0.0000E+00  0.0000E+00  0.0000E+00  0.0000E+00  0.0000E+00  0.0000E+00  0.0000E+00  0.0000E+00  0.0000E+00
    -40.555  0.0000E+00  0.0000E+00  0.0000E+00  0.0000E+00  0.0000E+00  0.0000E+00  0.0000E+00  0.0000E+00  0.0000E+00  0.0000E+00  0.0000E+00  0.0000E+00  0.0000E+00  0.0000E+00  0.0000E+00  0.0000E+00  0.0000E+00  0.0000E+00
    -40.360  0.0000E+00  0.0000E+00  0.0000E+00  0.0000E+00  0.0000E+00  0.0000E+00  0.0000E+00  0.0000E+00  0.0000E+00  0.0000E+00  0.0000E+00  0.0000E+00  0.0000E+00  0.0000E+00  0.0000E+00  0.0000E+00  0.0000E+00  0.0000E+00
    -40.165  0.0000E+00  0.0000E+00  0.0000E+00  0.0000E+00  0.0000E+00  0.0000E+00  0.0000E+00  0.0000E+00  0.0000E+00  0.0000E+00  0.0000E+00  0.0000E+00  0.0000E+00  0.0000E+00  0.0000E+00  0.0000E+00  0.0000E+00  0.0000E+00
    -39.970  0.0000E+00  0.0000E+00  0.0000E+00  0.0000E+00  0.0000E+00  0.0000E+00  0.0000E+00  0.0000E+00  0.0000E+00  0.0000E+00  0.0000E+00  0.0000E+00  0.0000E+00  0.0000E+00  0.0000E+00  0.0000E+00  0.0000E+00  0.0000E+00
    -39.775  0.0000E+00  0.0000E+00  0.0000E+00  0.0000E+00  0.0000E+00  0.0000E+00  0.0000E+00  0.0000E+00  0.0000E+00  0.0000E+00  0.0000E+00  0.0000E+00  0.0000E+00  0.0000E+00  0.0000E+00  0.0000E+00  0.0000E+00  0.0000E+00
    -39.580  0.0000E+00  0.0000E+00  0.0000E+00  0.0000E+00  0.0000E+00  0.0000E+00  0.0000E+00  0.0000E+00  0.0000E+00  0.0000E+00  0.0000E+00  0.0000E+00  0.0000E+00  0.0000E+00  0.0000E+00  0.0000E+00  0.0000E+00  0.0000E+00
    -39.384  0.0000E+00  0.0000E+00  0.0000E+00  0.0000E+00  0.0000E+00  0.0000E+00  0.0000E+00  0.0000E+00  0.0000E+00  0.0000E+00  0.0000E+00  0.0000E+00  0.0000E+00  0.0000E+00  0.0000E+00  0.0000E+00  0.0000E+00  0.0000E+00
    -39.189  0.0000E+00  0.0000E+00  0.0000E+00  0.0000E+00  0.0000E+00  0.0000E+00  0.0000E+00  0.0000E+00  0.0000E+00  0.0000E+00  0.0000E+00  0.0000E+00  0.0000E+00  0.0000E+00  0.0000E+00  0.0000E+00  0.0000E+00  0.0000E+00