   2   2   1   0
  0.3106380E+02  0.3585620E-09  0.3585620E-09  0.5579887E-09  0.5000000E-15
  1.000000000000000E-004
  CAR 
 unknown system                          
      8.02064862    -50.29942630  301      2.44841966      1.00000000
    -50.299  0.0000E+00  0.0000E+00  0.0000E+00  0.0000E+00
    -50.105  0.0000E+00  0.0000E+00  0.0000E+00  0.0000E+00
    -49.911  0.0000E+00  0.0000E+00  0.0000E+00  0.0000E+00
    -49.716  0.0000E+00  0.0000E+00  0.0000E+00  0.0000E+00
    -49.522  0.0000E+00  0.0000E+00  0.0000E+00  0.0000E+00
    -49.327  0.0000E+00  0.0000E+00  0.0000E+00  0.0000E+00
    -49.133  0.0000E+00  0.0000E+00  0.0000E+00  0.0000E+00
    -48.939  0.0000E+00  0.0000E+00  0.0000E+00  0.0000E+00
    -48.744  0.0000E+00  0.0000E+00  0.0000E+00  0.0000E+00
    -48.550  0.0000E+00  0.0000E+00  0.0000E+00  0.0000E+00
    -48.355  0.0000E+00  0.0000E+00  0.0000E+00  0.0000E+00
    -48.161  0.2408E-03  0.0000E+00  0.4680E-04  0.0000E+00
    -47.967  0.1150E-01  0.9022E-03  0.2282E-02  0.1754E-03
    -47.772  0.5312E+00  0.4295E-01  0.1055E+00  0.8524E-02
    -47.578  0.6957E+01  0.1730E+01  0.1458E+01  0.3449E+00
    -47.383  0.2710E+01  0.7584E+01  0.1985E+01  0.1819E+01
    -47.189  0.0000E+00  0.9093E+00  0.2000E+01  0.1996E+01
    -46.995  0.0000E+00  0.0000E+00  0.2000E+01  0.2000E+01
    -46.800  0.0000E+00  0.0000E+00  0.2000E+01  0.2000E+01
    -46.606  0.0000E+00  0.0000E+00  0.2000E+01  0.2000E+01
    -46.411  0.0000E+00  0.0000E+00  0.2000E+01  0.2000E+01
    -46.217  0.0000E+00  0.0000E+00  0.2000E+01  0.2000E+01
    -46.023  0.0000E+00  0.0000E+00  0.2000E+01  0.2000E+01
    -45.828  0.0000E+00  0.0000E+00  0.2000E+01  0.2000E+01
    -45.634  0.0000E+00  0.0000E+00  0.2000E+01  0.2000E+01
    -45.439  0.0000E+00  0.0000E+00  0.2000E+01  0.2000E+01
    -45.245  0.0000E+00  0.0000E+00  0.2000E+01  0.2000E+01
    -45.051  0.0000E+00  0.0000E+00  0.2000E+01  0.2000E+01
    -44.856  0.0000E+00  0.0000E+00  0.2000E+01  0.2000E+01
    -44.662  0.0000E+00  0.0000E+00  0.2000E+01  0.2000E+01
    -44.467  0.0000E+00  0.0000E+00  0.2000E+01  0.2000E+01
    -44.273  0.0000E+00  0.0000E+00  0.2000E+01  0.2000E+01
    -44.079  0.0000E+00  0.0000E+00  0.2000E+01  0.2000E+01
    -43.884  0.0000E+00  0.0000E+00  0.2000E+01  0.2000E+01
    -43.690  0.0000E+00  0.0000E+00  0.2000E+01  0.2000E+01
    -43.495  0.0000E+00  0.0000E+00  0.2000E+01  0.2000E+01
    -43.301  0.0000E+00  0.0000E+00  0.2000E+01  0.2000E+01
    -43.107  0.0000E+00  0.0000E+00  0.2000E+01  0.2000E+01
    -42.912  0.0000E+00  0.0000E+00  0.2000E+01  0.2000E+01
    -42.718  0.0000E+00  0.0000E+00  0.2000E+01  0.2000E+01
    -42.523  0.0000E+00  0.0000E+00  0.2000E+01  0.2000E+01
    -42.329  0.0000E+00  0.0000E+00  0.2000E+01  0.2000E+01
    -42.135  0.0000E+00  0.0000E+00  0.2000E+01  0.2000E+01
    -41.940  0.0000E+00  0.0000E+00  0.2000E+01  0.2000E+01
    -41.746  0.0000E+00  0.0000E+00  0.2000E+01  0.2000E+01
    -41.551  0.0000E+00  0.0000E+00  0.2000E+01  0.2000E+01
    -41.357  0.0000E+00  0.0000E+00  0.2000E+01  0.2000E+01
    -41.163  0.0000E+00  0.0000E+00  0.2000E+01  0.2000E+01
    -40.968  0.0000E+00  0.0000E+00  0.2000E+01  0.2000E+01
    -40.774  0.0000E+00  0.0000E+00  0.2000E+01  0.2000E+01
    -40.579  0.0000E+00  0.0000E+00  0.2000E+01  0.2000E+01
    -40.385  0.0000E+00  0.0000E+00  0.2000E+01  0.2000E+01
    -40.191  0.0000E+00  0.0000E+00  0.2000E+01  0.2000E+01
    -39.996  0.0000E+00  0.0000E+00  0.2000E+01  0.2000E+01
    -39.802  0.0000E+00  0.0000E+00  0.2000E+01  0.2000E+01
    -39.607  0.0000E+00  0.0000E+00  0.2000E+01  0.2000E+01
    -39.413  0.0000E+00  0.0000E+00  0.2000E+01  0.2000E+01
    -39.219  0.0000E+00  0.0000E+00  0.2000E+01  0.2000E+01
    -39.024  0.0000E+00  0.0000E+00  0.2000E+01  0.2000E+01
    -38.830  0.0000E+00  0.0000E+00  0.2000E+01  0.2000E+01
    -38.635  0.0000E+00  0.0000E+00  0.2000E+01  0.2000E+01
    -38.441  0.0000E+00  0.0000E+00  0.2000E+01  0.2000E+01
    -38.247  0.0000E+00  0.0000E+00  0.2000E+01  0.2000E+01
    -38.052  0.0000E+00  0.0000E+00  0.2000E+01  0.2000E+01
    -37.858  0.0000E+00  0.0000E+00  0.2000E+01  0.2000E+01
    -37.663  0.0000E+00  0.0000E+00  0.2000E+01  0.2000E+01
    -37.469  0.0000E+00  0.0000E+00  0.2000E+01  0.2000E+01
    -37.275  0.0000E+00  0.0000E+00  0.2000E+01  0.2000E+01
    -37.080  0.0000E+00  0.0000E+00  0.2000E+01  0.2000E+01
    -36.886  0.0000E+00  0.0000E+00  0.2000E+01  0.2000E+01
    -36.691  0.0000E+00  0.0000E+00  0.2000E+01  0.2000E+01
    -36.497  0.0000E+00  0.0000E+00  0.2000E+01  0.2000E+01
    -36.303  0.0000E+00  0.0000E+00  0.2000E+01  0.2000E+01
    -36.108  0.0000E+00  0.0000E+00  0.2000E+01  0.2000E+01
    -35.914  0.0000E+00  0.0000E+00  0.2000E+01  0.2000E+01
    -35.719  0.0000E+00  0.0000E+00  0.2000E+01  0.2000E+01
    -35.525  0.0000E+00  0.0000E+00  0.2000E+01  0.2000E+01
    -35.331  0.0000E+00  0.0000E+00  0.2000E+01  0.2000E+01
    -35.136  0.0000E+00  0.0000E+00  0.2000E+01  0.2000E+01
    -34.942  0.0000E+00  0.0000E+00  0.2000E+01  0.2000E+01
    -34.747  0.0000E+00  0.0000E+00  0.2000E+01  0.2000E+01
    -34.553  0.0000E+00  0.0000E+00  0.2000E+01  0.2000E+01
    -34.359  0.0000E+00  0.0000E+00  0.2000E+01  0.2000E+01
    -34.164  0.0000E+00  0.0000E+00  0.2000E+01  0.2000E+01
    -33.970  0.0000E+00  0.0000E+00  0.2000E+01  0.2000E+01
    -33.775  0.0000E+00  0.0000E+00  0.2000E+01  0.2000E+01
    -33.581  0.0000E+00  0.0000E+00  0.2000E+01  0.2000E+01
    -33.387  0.0000E+00  0.0000E+00  0.2000E+01  0.2000E+01
    -33.192  0.0000E+00  0.0000E+00  0.2000E+01  0.2000E+01
    -32.998  0.0000E+00  0.0000E+00  0.2000E+01  0.2000E+01
    -32.803  0.0000E+00  0.0000E+00  0.2000E+01  0.2000E+01
    -32.609  0.0000E+00  0.0000E+00  0.2000E+01  0.2000E+01
    -32.415  0.0000E+00  0.0000E+00  0.2000E+01  0.2000E+01
    -32.220  0.0000E+00  0.0000E+00  0.2000E+01  0.2000E+01
    -32.026  0.0000E+00  0.0000E+00  0.2000E+01  0.2000E+01
    -31.831  0.0000E+00  0.0000E+00  0.2000E+01  0.2000E+01
    -31.637  0.0000E+00  0.0000E+00  0.2000E+01  0.2000E+01
    -31.443  0.0000E+00  0.0000E+00  0.2000E+01  0.2000E+01
    -31.248  0.0000E+00  0.0000E+00  0.2000E+01  0.2000E+01
    -31.054  0.0000E+00  0.0000E+00  0.2000E+01  0.2000E+01
    -30.859  0.0000E+00  0.0000E+00  0.2000E+01  0.2000E+01
    -30.665  0.0000E+00  0.0000E+00  0.2000E+01  0.2000E+01
    -30.471  0.0000E+00  0.0000E+00  0.2000E+01  0.2000E+01
    -30.276  0.0000E+00  0.0000E+00  0.2000E+01  0.2000E+01
    -30.082  0.0000E+00  0.0000E+00  0.2000E+01  0.2000E+01
    -29.887  0.0000E+00  0.0000E+00  0.2000E+01  0.2000E+01
    -29.693  0.0000E+00  0.0000E+00  0.2000E+01  0.2000E+01
    -29.499  0.0000E+00  0.0000E+00  0.2000E+01  0.2000E+01
    -29.304  0.0000E+00  0.0000E+00  0.2000E+01  0.2000E+01
    -29.110  0.0000E+00  0.0000E+00  0.2000E+01  0.2000E+01
    -28.915  0.0000E+00  0.0000E+00  0.2000E+01  0.2000E+01
    -28.721  0.0000E+00  0.0000E+00  0.2000E+01  0.2000E+01
    -28.527  0.0000E+00  0.0000E+00  0.2000E+01  0.2000E+01
    -28.332  0.0000E+00  0.0000E+00  0.2000E+01  0.2000E+01
    -28.138  0.0000E+00  0.0000E+00  0.2000E+01  0.2000E+01
    -27.943  0.0000E+00  0.0000E+00  0.2000E+01  0.2000E+01
    -27.749  0.0000E+00  0.0000E+00  0.2000E+01  0.2000E+01
    -27.555  0.0000E+00  0.0000E+00  0.2000E+01  0.2000E+01
    -27.360  0.0000E+00  0.0000E+00  0.2000E+01  0.2000E+01
    -27.166  0.0000E+00  0.0000E+00  0.2000E+01  0.2000E+01
    -26.971  0.0000E+00  0.0000E+00  0.2000E+01  0.2000E+01
    -26.777  0.6518E-03  0.2374E-05  0.2000E+01  0.2000E+01
    -26.583  0.3323E-01  0.2561E-02  0.2007E+01  0.2000E+01
    -26.388  0.1471E+01  0.1216E+00  0.2292E+01  0.2024E+01
    -26.194  0.1710E+02  0.4358E+01  0.5617E+01  0.2871E+01
    -25.999  0.1173E+02  0.2100E+02  0.7898E+01  0.6953E+01
    -25.805  0.3971E+00  0.5241E+01  0.7998E+01  0.7972E+01
    -25.611  0.0000E+00  0.0000E+00  0.8000E+01  0.8000E+01
    -25.416  0.0000E+00  0.0000E+00  0.8000E+01  0.8000E+01
    -25.222  0.0000E+00  0.0000E+00  0.8000E+01  0.8000E+01
    -25.027  0.0000E+00  0.0000E+00  0.8000E+01  0.8000E+01
    -24.833  0.0000E+00  0.0000E+00  0.8000E+01  0.8000E+01
    -24.639  0.0000E+00  0.0000E+00  0.8000E+01  0.8000E+01
    -24.444  0.0000E+00  0.0000E+00  0.8000E+01  0.8000E+01
    -24.250  0.0000E+00  0.0000E+00  0.8000E+01  0.8000E+01
    -24.055  0.0000E+00  0.0000E+00  0.8000E+01  0.8000E+01
    -23.861  0.0000E+00  0.0000E+00  0.8000E+01  0.8000E+01
    -23.667  0.0000E+00  0.0000E+00  0.8000E+01  0.8000E+01
    -23.472  0.0000E+00  0.0000E+00  0.8000E+01  0.8000E+01
    -23.278  0.0000E+00  0.0000E+00  0.8000E+01  0.8000E+01
    -23.083  0.0000E+00  0.0000E+00  0.8000E+01  0.8000E+01
    -22.889  0.0000E+00  0.0000E+00  0.8000E+01  0.8000E+01
    -22.695  0.0000E+00  0.0000E+00  0.8000E+01  0.8000E+01
    -22.500  0.0000E+00  0.0000E+00  0.8000E+01  0.8000E+01
    -22.306  0.0000E+00  0.0000E+00  0.8000E+01  0.8000E+01
    -22.111  0.0000E+00  0.0000E+00  0.8000E+01  0.8000E+01
    -21.917  0.0000E+00  0.0000E+00  0.8000E+01  0.8000E+01
    -21.723  0.0000E+00  0.0000E+00  0.8000E+01  0.8000E+01
    -21.528  0.0000E+00  0.0000E+00  0.8000E+01  0.8000E+01
    -21.334  0.0000E+00  0.0000E+00  0.8000E+01  0.8000E+01
    -21.139  0.0000E+00  0.0000E+00  0.8000E+01  0.8000E+01
    -20.945  0.0000E+00  0.0000E+00  0.8000E+01  0.8000E+01
    -20.751  0.0000E+00  0.0000E+00  0.8000E+01  0.8000E+01
    -20.556  0.0000E+00  0.0000E+00  0.8000E+01  0.8000E+01
    -20.362  0.0000E+00  0.0000E+00  0.8000E+01  0.8000E+01
    -20.167  0.0000E+00  0.0000E+00  0.8000E+01  0.8000E+01
    -19.973  0.0000E+00  0.0000E+00  0.8000E+01  0.8000E+01
    -19.779  0.0000E+00  0.0000E+00  0.8000E+01  0.8000E+01
    -19.584  0.0000E+00  0.0000E+00  0.8000E+01  0.8000E+01
    -19.390  0.0000E+00  0.0000E+00  0.8000E+01  0.8000E+01
    -19.195  0.0000E+00  0.0000E+00  0.8000E+01  0.8000E+01
    -19.001  0.0000E+00  0.0000E+00  0.8000E+01  0.8000E+01
    -18.807  0.0000E+00  0.0000E+00  0.8000E+01  0.8000E+01
    -18.612  0.0000E+00  0.0000E+00  0.8000E+01  0.8000E+01
    -18.418  0.0000E+00  0.0000E+00  0.8000E+01  0.8000E+01
    -18.223  0.0000E+00  0.0000E+00  0.8000E+01  0.8000E+01
    -18.029  0.0000E+00  0.0000E+00  0.8000E+01  0.8000E+01
    -17.835  0.0000E+00  0.0000E+00  0.8000E+01  0.8000E+01
    -17.640  0.0000E+00  0.0000E+00  0.8000E+01  0.8000E+01
    -17.446  0.0000E+00  0.0000E+00  0.8000E+01  0.8000E+01
    -17.251  0.0000E+00  0.0000E+00  0.8000E+01  0.8000E+01
    -17.057  0.0000E+00  0.0000E+00  0.8000E+01  0.8000E+01
    -16.863  0.0000E+00  0.0000E+00  0.8000E+01  0.8000E+01
    -16.668  0.0000E+00  0.0000E+00  0.8000E+01  0.8000E+01
    -16.474  0.0000E+00  0.0000E+00  0.8000E+01  0.8000E+01
    -16.279  0.0000E+00  0.0000E+00  0.8000E+01  0.8000E+01
    -16.085  0.0000E+00  0.0000E+00  0.8000E+01  0.8000E+01
    -15.891  0.0000E+00  0.0000E+00  0.8000E+01  0.8000E+01
    -15.696  0.0000E+00  0.0000E+00  0.8000E+01  0.8000E+01
    -15.502  0.0000E+00  0.0000E+00  0.8000E+01  0.8000E+01
    -15.307  0.0000E+00  0.0000E+00  0.8000E+01  0.8000E+01
    -15.113  0.0000E+00  0.0000E+00  0.8000E+01  0.8000E+01
    -14.919  0.0000E+00  0.0000E+00  0.8000E+01  0.8000E+01
    -14.724  0.0000E+00  0.0000E+00  0.8000E+01  0.8000E+01
    -14.530  0.0000E+00  0.0000E+00  0.8000E+01  0.8000E+01
    -14.335  0.0000E+00  0.0000E+00  0.8000E+01  0.8000E+01
    -14.141  0.0000E+00  0.0000E+00  0.8000E+01  0.8000E+01
    -13.947  0.0000E+00  0.0000E+00  0.8000E+01  0.8000E+01
    -13.752  0.0000E+00  0.0000E+00  0.8000E+01  0.8000E+01
    -13.558  0.0000E+00  0.0000E+00  0.8000E+01  0.8000E+01
    -13.363  0.0000E+00  0.0000E+00  0.8000E+01  0.8000E+01
    -13.169  0.0000E+00  0.0000E+00  0.8000E+01  0.8000E+01
    -12.975  0.0000E+00  0.0000E+00  0.8000E+01  0.8000E+01
    -12.780  0.0000E+00  0.0000E+00  0.8000E+01  0.8000E+01
    -12.586  0.0000E+00  0.0000E+00  0.8000E+01  0.8000E+01
    -12.391  0.0000E+00  0.0000E+00  0.8000E+01  0.8000E+01
    -12.197  0.0000E+00  0.0000E+00  0.8000E+01  0.8000E+01
    -12.003  0.0000E+00  0.0000E+00  0.8000E+01  0.8000E+01
    -11.808  0.0000E+00  0.0000E+00  0.8000E+01  0.8000E+01
    -11.614  0.0000E+00  0.0000E+00  0.8000E+01  0.8000E+01
    -11.419  0.0000E+00  0.0000E+00  0.8000E+01  0.8000E+01
    -11.225  0.0000E+00  0.0000E+00  0.8000E+01  0.8000E+01
    -11.031  0.0000E+00  0.0000E+00  0.8000E+01  0.8000E+01
    -10.836  0.0000E+00  0.0000E+00  0.8000E+01  0.8000E+01
    -10.642  0.0000E+00  0.0000E+00  0.8000E+01  0.8000E+01
    -10.447  0.0000E+00  0.0000E+00  0.8000E+01  0.8000E+01
    -10.253  0.0000E+00  0.0000E+00  0.8000E+01  0.8000E+01
    -10.059  0.0000E+00  0.0000E+00  0.8000E+01  0.8000E+01
     -9.864  0.0000E+00  0.0000E+00  0.8000E+01  0.8000E+01
     -9.670  0.0000E+00  0.0000E+00  0.8000E+01  0.8000E+01
     -9.475  0.0000E+00  0.0000E+00  0.8000E+01  0.8000E+01
     -9.281  0.0000E+00  0.0000E+00  0.8000E+01  0.8000E+01
     -9.087  0.0000E+00  0.0000E+00  0.8000E+01  0.8000E+01
     -8.892  0.0000E+00  0.0000E+00  0.8000E+01  0.8000E+01
     -8.698  0.0000E+00  0.0000E+00  0.8000E+01  0.8000E+01
     -8.503  0.0000E+00  0.0000E+00  0.8000E+01  0.8000E+01
     -8.309  0.0000E+00  0.0000E+00  0.8000E+01  0.8000E+01
     -8.115  0.0000E+00  0.0000E+00  0.8000E+01  0.8000E+01
     -7.920  0.0000E+00  0.0000E+00  0.8000E+01  0.8000E+01
     -7.726  0.0000E+00  0.0000E+00  0.8000E+01  0.8000E+01
     -7.531  0.0000E+00  0.0000E+00  0.8000E+01  0.8000E+01
     -7.337  0.0000E+00  0.0000E+00  0.8000E+01  0.8000E+01
     -7.143  0.0000E+00  0.0000E+00  0.8000E+01  0.8000E+01
     -6.948  0.0000E+00  0.0000E+00  0.8000E+01  0.8000E+01
     -6.754  0.0000E+00  0.0000E+00  0.8000E+01  0.8000E+01
     -6.559  0.0000E+00  0.0000E+00  0.8000E+01  0.8000E+01
     -6.365  0.0000E+00  0.0000E+00  0.8000E+01  0.8000E+01
     -6.171  0.0000E+00  0.0000E+00  0.8000E+01  0.8000E+01
     -5.976  0.0000E+00  0.0000E+00  0.8000E+01  0.8000E+01
     -5.782  0.0000E+00  0.0000E+00  0.8000E+01  0.8000E+01
     -5.587  0.0000E+00  0.0000E+00  0.8000E+01  0.8000E+01
     -5.393  0.0000E+00  0.0000E+00  0.8000E+01  0.8000E+01
     -5.199  0.0000E+00  0.0000E+00  0.8000E+01  0.8000E+01
     -5.004  0.0000E+00  0.0000E+00  0.8000E+01  0.8000E+01
     -4.810  0.0000E+00  0.0000E+00  0.8000E+01  0.8000E+01
     -4.615  0.0000E+00  0.0000E+00  0.8000E+01  0.8000E+01
     -4.421  0.0000E+00  0.0000E+00  0.8000E+01  0.8000E+01
     -4.227  0.0000E+00  0.0000E+00  0.8000E+01  0.8000E+01
     -4.032  0.0000E+00  0.0000E+00  0.8000E+01  0.8000E+01
     -3.838  0.0000E+00  0.0000E+00  0.8000E+01  0.8000E+01
     -3.643  0.0000E+00  0.0000E+00  0.8000E+01  0.8000E+01
     -3.449  0.0000E+00  0.0000E+00  0.8000E+01  0.8000E+01
     -3.255  0.0000E+00  0.0000E+00  0.8000E+01  0.8000E+01
     -3.060  0.0000E+00  0.0000E+00  0.8000E+01  0.8000E+01
     -2.866  0.7097E-07  0.0000E+00  0.8000E+01  0.8000E+01
     -2.671  0.8970E-05  0.0000E+00  0.8000E+01  0.8000E+01
     -2.477  0.4283E-03  0.2938E-05  0.8000E+01  0.8000E+01
     -2.283  0.1235E-01  0.1412E-03  0.8002E+01  0.8000E+01
     -2.088  0.5990E-01  0.5341E-02  0.8014E+01  0.8001E+01
     -1.894  0.1107E+00  0.4716E-01  0.8036E+01  0.8010E+01
     -1.699  0.1158E+00  0.9189E-01  0.8058E+01  0.8028E+01
     -1.505  0.1730E+00  0.1190E+00  0.8092E+01  0.8051E+01
     -1.311  0.1916E+00  0.1592E+00  0.8129E+01  0.8082E+01
     -1.116  0.1718E+00  0.1816E+00  0.8163E+01  0.8118E+01
     -0.922  0.2781E+00  0.1742E+00  0.8217E+01  0.8152E+01
     -0.727  0.2331E+00  0.2568E+00  0.8263E+01  0.8202E+01
     -0.533  0.2732E+00  0.2518E+00  0.8316E+01  0.8251E+01
     -0.339  0.3354E+00  0.2437E+00  0.8381E+01  0.8298E+01
     -0.144  0.3510E+00  0.3343E+00  0.8450E+01  0.8363E+01
      0.050  0.3669E+00  0.3372E+00  0.8521E+01  0.8429E+01
      0.245  0.3948E+00  0.3745E+00  0.8598E+01  0.8502E+01
      0.439  0.5679E+00  0.3683E+00  0.8709E+01  0.8574E+01
      0.633  0.4883E+00  0.5247E+00  0.8804E+01  0.8677E+01
      0.828  0.6358E+00  0.5284E+00  0.8928E+01  0.8780E+01
      1.022  0.8480E+00  0.5630E+00  0.9094E+01  0.8889E+01
      1.217  0.7732E+00  0.8478E+00  0.9245E+01  0.9055E+01
      1.411  0.8510E+00  0.8912E+00  0.9411E+01  0.9228E+01
      1.605  0.9865E+00  0.8965E+00  0.9603E+01  0.9403E+01
      1.800  0.1098E+01  0.1081E+01  0.9818E+01  0.9615E+01
      1.994  0.1552E+01  0.1056E+01  0.1012E+02  0.9820E+01
      2.189  0.2713E+01  0.1323E+01  0.1065E+02  0.1008E+02
      2.383  0.2733E+01  0.2220E+01  0.1118E+02  0.1051E+02
      2.577  0.1774E+01  0.2568E+01  0.1153E+02  0.1101E+02
      2.772  0.1179E+01  0.2350E+01  0.1176E+02  0.1147E+02
      2.966  0.1109E+01  0.1420E+01  0.1198E+02  0.1175E+02
      3.161  0.1806E+01  0.1251E+01  0.1233E+02  0.1199E+02
      3.355  0.3241E+01  0.2093E+01  0.1296E+02  0.1240E+02
      3.549  0.3155E+01  0.3434E+01  0.1358E+02  0.1307E+02
      3.744  0.3180E+01  0.3206E+01  0.1420E+02  0.1369E+02
      3.938  0.2989E+01  0.3346E+01  0.1478E+02  0.1435E+02
      4.133  0.1861E+01  0.2773E+01  0.1514E+02  0.1489E+02
      4.327  0.1153E+01  0.1609E+01  0.1537E+02  0.1520E+02
      4.521  0.9385E+00  0.1101E+01  0.1555E+02  0.1542E+02
      4.716  0.8586E+00  0.8904E+00  0.1572E+02  0.1559E+02
      4.910  0.6437E+00  0.8010E+00  0.1585E+02  0.1575E+02
      5.105  0.5665E+00  0.6338E+00  0.1596E+02  0.1587E+02
      5.299  0.1968E+00  0.4856E+00  0.1600E+02  0.1597E+02
      5.493  0.1160E-01  0.1450E+00  0.1600E+02  0.1600E+02
      5.688  0.0000E+00  0.7308E-02  0.1600E+02  0.1600E+02
      5.882  0.0000E+00  0.0000E+00  0.1600E+02  0.1600E+02
      6.077  0.0000E+00  0.0000E+00  0.1600E+02  0.1600E+02
      6.271  0.0000E+00  0.0000E+00  0.1600E+02  0.1600E+02
      6.465  0.0000E+00  0.0000E+00  0.1600E+02  0.1600E+02
      6.660  0.0000E+00  0.0000E+00  0.1600E+02  0.1600E+02
      6.854  0.0000E+00  0.0000E+00  0.1600E+02  0.1600E+02
      7.049  0.0000E+00  0.0000E+00  0.1600E+02  0.1600E+02
      7.243  0.0000E+00  0.0000E+00  0.1600E+02  0.1600E+02
      7.437  0.0000E+00  0.0000E+00  0.1600E+02  0.1600E+02
      7.632  0.0000E+00  0.0000E+00  0.1600E+02  0.1600E+02
      7.826  0.0000E+00  0.0000E+00  0.1600E+02  0.1600E+02
      8.021  0.0000E+00  0.0000E+00  0.1600E+02  0.1600E+02
      8.02064862    -50.29942630  301      2.44841966      1.00000000
    -50.299  0.0000E+00  0.0000E+00  0.0000E+00  0.0000E+00  0.0000E+00  0.0000E+00  0.0000E+00  0.0000E+00  0.0000E+00  0.0000E+00  0.0000E+00  0.0000E+00  0.0000E+00  0.0000E+00  0.0000E+00  0.0000E+00  0.0000E+00  0.0000E+00
    -50.105  0.0000E+00  0.0000E+00  0.0000E+00  0.0000E+00  0.0000E+00  0.0000E+00  0.0000E+00  0.0000E+00  0.0000E+00  0.0000E+00  0.0000E+00  0.0000E+00  0.0000E+00  0.0000E+00  0.0000E+00  0.0000E+00  0.0000E+00  0.0000E+00
    -49.911  0.0000E+00  0.0000E+00  0.0000E+00  0.0000E+00  0.0000E+00  0.0000E+00  0.0000E+00  0.0000E+00  0.0000E+00  0.0000E+00  0.0000E+00  0.0000E+00  0.0000E+00  0.0000E+00  0.0000E+00  0.0000E+00  0.0000E+00  0.0000E+00
    -49.716  0.0000E+00  0.0000E+00  0.0000E+00  0.0000E+00  0.0000E+00  0.0000E+00  0.0000E+00  0.0000E+00  0.0000E+00  0.0000E+00  0.0000E+00  0.0000E+00  0.0000E+00  0.0000E+00  0.0000E+00  0.0000E+00  0.0000E+00  0.0000E+00
    -49.522  0.0000E+00  0.0000E+00  0.0000E+00  0.0000E+00  0.0000E+00  0.0000E+00  0.0000E+00  0.0000E+00  0.0000E+00  0.0000E+00  0.0000E+00  0.0000E+00  0.0000E+00  0.0000E+00  0.0000E+00  0.0000E+00  0.0000E+00  0.0000E+00
    -49.327  0.0000E+00  0.0000E+00  0.0000E+00  0.0000E+00  0.0000E+00  0.0000E+00  0.0000E+00  0.0000E+00  0.0000E+00  0.0000E+00  0.0000E+00  0.0000E+00  0.0000E+00  0.0000E+00  0.0000E+00  0.0000E+00  0.0000E+00  0.0000E+00
    -49.133  0.0000E+00  0.0000E+00  0.0000E+00  0.0000E+00  0.0000E+00  0.0000E+00  0.0000E+00  0.0000E+00  0.0000E+00  0.0000E+00  0.0000E+00  0.0000E+00  0.0000E+00  0.0000E+00  0.0000E+00  0.0000E+00  0.0000E+00  0.0000E+00
    -48.939  0.0000E+00  0.0000E+00  0.0000E+00  0.0000E+00  0.0000E+00  0.0000E+00  0.0000E+00  0.0000E+00  0.0000E+00  0.0000E+00  0.0000E+00  0.0000E+00  0.0000E+00  0.0000E+00  0.0000E+00  0.0000E+00  0.0000E+00  0.0000E+00
    -48.744  0.0000E+00  0.0000E+00  0.0000E+00  0.0000E+00  0.0000E+00  0.0000E+00  0.0000E+00  0.0000E+00  0.0000E+00  0.0000E+00  0.0000E+00  0.0000E+00  0.0000E+00  0.0000E+00  0.0000E+00  0.0000E+00  0.0000E+00  0.0000E+00
    -48.550  0.0000E+00  0.0000E+00  0.0000E+00  0.0000E+00  0.0000E+00  0.0000E+00  0.0000E+00  0.0000E+00  0.0000E+00  0.0000E+00  0.0000E+00  0.0000E+00  0.0000E+00  0.0000E+00  0.0000E+00  0.0000E+00  0.0000E+00  0.0000E+00
    -48.355  0.0000E+00  0.0000E+00  0.0000E+00  0.0000E+00  0.0000E+00  0.0000E+00  0.0000E+00  0.0000E+00  0.0000E+00  0.0000E+00  0.0000E+00  0.0000E+00  0.0000E+00  0.0000E+00  0.0000E+00  0.0000E+00  0.0000E+00  0.0000E+00
    -48.161  0.1199E-03  0.0000E+00  0.2236E-10  0.0000E+00  0.3601E-10  0.0000E+00  0.2236E-10  0.0000E+00  0.5865E-11  0.0000E+00  0.9407E-11  0.0000E+00  0.1237E-10  0.0000E+00  0.9407E-11  0.0000E+00  0.5865E-11  0.0000E+00
    -47.967  0.5728E-02  0.4494E-03  0.1068E-08  0.8205E-10  0.1720E-08  0.1332E-09  0.1068E-08  0.8205E-10  0.2801E-09  0.2198E-10  0.4493E-09  0.3547E-10  0.5909E-09  0.7287E-10  0.4493E-09  0.3547E-10  0.2801E-09  0.2198E-10
    -47.772  0.2646E+00  0.2140E-01  0.4912E-07  0.3905E-08  0.7921E-07  0.6339E-08  0.4912E-07  0.3905E-08  0.1294E-07  0.1046E-08  0.2080E-07  0.1689E-08  0.2732E-07  0.3469E-08  0.2080E-07  0.1689E-08  0.1294E-07  0.1046E-08
    -47.578  0.3466E+01  0.8619E+00  0.6089E-06  0.1553E-06  0.9971E-06  0.2530E-06  0.6089E-06  0.1553E-06  0.1694E-06  0.4217E-07  0.2796E-06  0.6853E-07  0.3612E-06  0.1390E-06  0.2796E-06  0.6853E-07  0.1694E-06  0.4217E-07
    -47.383  0.1350E+01  0.3778E+01  0.2208E-06  0.6361E-06  0.3684E-06  0.1056E-05  0.2208E-06  0.6361E-06  0.6545E-07  0.1841E-06  0.1116E-06  0.3094E-06  0.1420E-06  0.5919E-06  0.1116E-06  0.3094E-06  0.6545E-07  0.1841E-06
    -47.189  0.0000E+00  0.4530E+00  0.0000E+00  0.7170E-07  0.0000E+00  0.1210E-06  0.0000E+00  0.7170E-07  0.0000E+00  0.2188E-07  0.0000E+00  0.3783E-07  0.0000E+00  0.6908E-07  0.0000E+00  0.3783E-07  0.0000E+00  0.2188E-07
    -46.995  0.0000E+00  0.0000E+00  0.0000E+00  0.0000E+00  0.0000E+00  0.0000E+00  0.0000E+00  0.0000E+00  0.0000E+00  0.0000E+00  0.0000E+00  0.0000E+00  0.0000E+00  0.0000E+00  0.0000E+00  0.0000E+00  0.0000E+00  0.0000E+00
    -46.800  0.0000E+00  0.0000E+00  0.0000E+00  0.0000E+00  0.0000E+00  0.0000E+00  0.0000E+00  0.0000E+00  0.0000E+00  0.0000E+00  0.0000E+00  0.0000E+00  0.0000E+00  0.0000E+00  0.0000E+00  0.0000E+00  0.0000E+00  0.0000E+00
    -46.606  0.0000E+00  0.0000E+00  0.0000E+00  0.0000E+00  0.0000E+00  0.0000E+00  0.0000E+00  0.0000E+00  0.0000E+00  0.0000E+00  0.0000E+00  0.0000E+00  0.0000E+00  0.0000E+00  0.0000E+00  0.0000E+00  0.0000E+00  0.0000E+00
    -46.411  0.0000E+00  0.0000E+00  0.0000E+00  0.0000E+00  0.0000E+00  0.0000E+00  0.0000E+00  0.0000E+00  0.0000E+00  0.0000E+00  0.0000E+00  0.0000E+00  0.0000E+00  0.0000E+00  0.0000E+00  0.0000E+00  0.0000E+00  0.0000E+00
    -46.217  0.0000E+00  0.0000E+00  0.0000E+00  0.0000E+00  0.0000E+00  0.0000E+00  0.0000E+00  0.0000E+00  0.0000E+00  0.0000E+00  0.0000E+00  0.0000E+00  0.0000E+00  0.0000E+00  0.0000E+00  0.0000E+00  0.0000E+00  0.0000E+00
    -46.023  0.0000E+00  0.0000E+00  0.0000E+00  0.0000E+00  0.0000E+00  0.0000E+00  0.0000E+00  0.0000E+00  0.0000E+00  0.0000E+00  0.0000E+00  0.0000E+00  0.0000E+00  0.0000E+00  0.0000E+00  0.0000E+00  0.0000E+00  0.0000E+00
    -45.828  0.0000E+00  0.0000E+00  0.0000E+00  0.0000E+00  0.0000E+00  0.0000E+00  0.0000E+00  0.0000E+00  0.0000E+00  0.0000E+00  0.0000E+00  0.0000E+00  0.0000E+00  0.0000E+00  0.0000E+00  0.0000E+00  0.0000E+00  0.0000E+00
    -45.634  0.0000E+00  0.0000E+00  0.0000E+00  0.0000E+00  0.0000E+00  0.0000E+00  0.0000E+00  0.0000E+00  0.0000E+00  0.0000E+00  0.0000E+00  0.0000E+00  0.0000E+00  0.0000E+00  0.0000E+00  0.0000E+00  0.0000E+00  0.0000E+00
    -45.439  0.0000E+00  0.0000E+00  0.0000E+00  0.0000E+00  0.0000E+00  0.0000E+00  0.0000E+00  0.0000E+00  0.0000E+00  0.0000E+00  0.0000E+00  0.0000E+00  0.0000E+00  0.0000E+00  0.0000E+00  0.0000E+00  0.0000E+00  0.0000E+00
    -45.245  0.0000E+00  0.0000E+00  0.0000E+00  0.0000E+00  0.0000E+00  0.0000E+00  0.0000E+00  0.0000E+00  0.0000E+00  0.0000E+00  0.0000E+00  0.0000E+00  0.0000E+00  0.0000E+00  0.0000E+00  0.0000E+00  0.0000E+00  0.0000E+00
    -45.051  0.0000E+00  0.0000E+00  0.0000E+00  0.0000E+00  0.0000E+00  0.0000E+00  0.0000E+00  0.0000E+00  0.0000E+00  0.0000E+00  0.0000E+00  0.0000E+00  0.0000E+00  0.0000E+00  0.0000E+00  0.0000E+00  0.0000E+00  0.0000E+00
    -44.856  0.0000E+00  0.0000E+00  0.0000E+00  0.0000E+00  0.0000E+00  0.0000E+00  0.0000E+00  0.0000E+00  0.0000E+00  0.0000E+00  0.0000E+00  0.0000E+00  0.0000E+00  0.0000E+00  0.0000E+00  0.0000E+00  0.0000E+00  0.0000E+00
    -44.662  0.0000E+00  0.0000E+00  0.0000E+00  0.0000E+00  0.0000E+00  0.0000E+00  0.0000E+00  0.0000E+00  0.0000E+00  0.0000E+00  0.0000E+00  0.0000E+00  0.0000E+00  0.0000E+00  0.0000E+00  0.0000E+00  0.0000E+00  0.0000E+00
    -44.467  0.0000E+00  0.0000E+00  0.0000E+00  0.0000E+00  0.0000E+00  0.0000E+00  0.0000E+00  0.0000E+00  0.0000E+00  0.0000E+00  0.0000E+00  0.0000E+00  0.0000E+00  0.0000E+00  0.0000E+00  0.0000E+00  0.0000E+00  0.0000E+00
    -44.273  0.0000E+00  0.0000E+00  0.0000E+00  0.0000E+00  0.0000E+00  0.0000E+00  0.0000E+00  0.0000E+00  0.0000E+00  0.0000E+00  0.0000E+00  0.0000E+00  0.0000E+00  0.0000E+00  0.0000E+00  0.0000E+00  0.0000E+00  0.0000E+00
    -44.079  0.0000E+00  0.0000E+00  0.0000E+00  0.0000E+00  0.0000E+00  0.0000E+00  0.0000E+00  0.0000E+00  0.0000E+00  0.0000E+00  0.0000E+00  0.0000E+00  0.0000E+00  0.0000E+00  0.0000E+00  0.0000E+00  0.0000E+00  0.0000E+00
    -43.884  0.0000E+00  0.0000E+00  0.0000E+00  0.0000E+00  0.0000E+00  0.0000E+00  0.0000E+00  0.0000E+00  0.0000E+00  0.0000E+00  0.0000E+00  0.0000E+00  0.0000E+00  0.0000E+00  0.0000E+00  0.0000E+00  0.0000E+00  0.0000E+00
    -43.690  0.0000E+00  0.0000E+00  0.0000E+00  0.0000E+00  0.0000E+00  0.0000E+00  0.0000E+00  0.0000E+00  0.0000E+00  0.0000E+00  0.0000E+00  0.0000E+00  0.0000E+00  0.0000E+00  0.0000E+00  0.0000E+00  0.0000E+00  0.0000E+00
    -43.495  0.0000E+00  0.0000E+00  0.0000E+00  0.0000E+00  0.0000E+00  0.0000E+00  0.0000E+00  0.0000E+00  0.0000E+00  0.0000E+00  0.0000E+00  0.0000E+00  0.0000E+00  0.0000E+00  0.0000E+00  0.0000E+00  0.0000E+00  0.0000E+00
    -43.301  0.0000E+00  0.0000E+00  0.0000E+00  0.0000E+00  0.0000E+00  0.0000E+00  0.0000E+00  0.0000E+00  0.0000E+00  0.0000E+00  0.0000E+00  0.0000E+00  0.0000E+00  0.0000E+00  0.0000E+00  0.0000E+00  0.0000E+00  0.0000E+00
    -43.107  0.0000E+00  0.0000E+00  0.0000E+00  0.0000E+00  0.0000E+00  0.0000E+00  0.0000E+00  0.0000E+00  0.0000E+00  0.0000E+00  0.0000E+00  0.0000E+00  0.0000E+00  0.0000E+00  0.0000E+00  0.0000E+00  0.0000E+00  0.0000E+00
    -42.912  0.0000E+00  0.0000E+00  0.0000E+00  0.0000E+00  0.0000E+00  0.0000E+00  0.0000E+00  0.0000E+00  0.0000E+00  0.0000E+00  0.0000E+00  0.0000E+00  0.0000E+00  0.0000E+00  0.0000E+00  0.0000E+00  0.0000E+00  0.0000E+00
    -42.718  0.0000E+00  0.0000E+00  0.0000E+00  0.0000E+00  0.0000E+00  0.0000E+00  0.0000E+00  0.0000E+00  0.0000E+00  0.0000E+00  0.0000E+00  0.0000E+00  0.0000E+00  0.0000E+00  0.0000E+00  0.0000E+00  0.0000E+00  0.0000E+00
    -42.523  0.0000E+00  0.0000E+00  0.0000E+00  0.0000E+00  0.0000E+00  0.0000E+00  0.0000E+00  0.0000E+00  0.0000E+00  0.0000E+00  0.0000E+00  0.0000E+00  0.0000E+00  0.0000E+00  0.0000E+00  0.0000E+00  0.0000E+00  0.0000E+00
    -42.329  0.0000E+00  0.0000E+00  0.0000E+00  0.0000E+00  0.0000E+00  0.0000E+00  0.0000E+00  0.0000E+00  0.0000E+00  0.0000E+00  0.0000E+00  0.0000E+00  0.0000E+00  0.0000E+00  0.0000E+00  0.0000E+00  0.0000E+00  0.0000E+00
    -42.135  0.0000E+00  0.0000E+00  0.0000E+00  0.0000E+00  0.0000E+00  0.0000E+00  0.0000E+00  0.0000E+00  0.0000E+00  0.0000E+00  0.0000E+00  0.0000E+00  0.0000E+00  0.0000E+00  0.0000E+00  0.0000E+00  0.0000E+00  0.0000E+00
    -41.940  0.0000E+00  0.0000E+00  0.0000E+00  0.0000E+00  0.0000E+00  0.0000E+00  0.0000E+00  0.0000E+00  0.0000E+00  0.0000E+00  0.0000E+00  0.0000E+00  0.0000E+00  0.0000E+00  0.0000E+00  0.0000E+00  0.0000E+00  0.0000E+00
    -41.746  0.0000E+00  0.0000E+00  0.0000E+00  0.0000E+00  0.0000E+00  0.0000E+00  0.0000E+00  0.0000E+00  0.0000E+00  0.0000E+00  0.0000E+00  0.0000E+00  0.0000E+00  0.0000E+00  0.0000E+00  0.0000E+00  0.0000E+00  0.0000E+00
    -41.551  0.0000E+00  0.0000E+00  0.0000E+00  0.0000E+00  0.0000E+00  0.0000E+00  0.0000E+00  0.0000E+00  0.0000E+00  0.0000E+00  0.0000E+00  0.0000E+00  0.0000E+00  0.0000E+00  0.0000E+00  0.0000E+00  0.0000E+00  0.0000E+00
    -41.357  0.0000E+00  0.0000E+00  0.0000E+00  0.0000E+00  0.0000E+00  0.0000E+00  0.0000E+00  0.0000E+00  0.0000E+00  0.0000E+00  0.0000E+00  0.0000E+00  0.0000E+00  0.0000E+00  0.0000E+00  0.0000E+00  0.0000E+00  0.0000E+00
    -41.163  0.0000E+00  0.0000E+00  0.0000E+00  0.0000E+00  0.0000E+00  0.0000E+00  0.0000E+00  0.0000E+00  0.0000E+00  0.0000E+00  0.0000E+00  0.0000E+00  0.0000E+00  0.0000E+00  0.0000E+00  0.0000E+00  0.0000E+00  0.0000E+00
    -40.968  0.0000E+00  0.0000E+00  0.0000E+00  0.0000E+00  0.0000E+00  0.0000E+00  0.0000E+00  0.0000E+00  0.0000E+00  0.0000E+00  0.0000E+00  0.0000E+00  0.0000E+00  0.0000E+00  0.0000E+00  0.0000E+00  0.0000E+00  0.0000E+00
    -40.774  0.0000E+00  0.0000E+00  0.0000E+00  0.0000E+00  0.0000E+00  0.0000E+00  0.0000E+00  0.0000E+00  0.0000E+00  0.0000E+00  0.0000E+00  0.0000E+00  0.0000E+00  0.0000E+00  0.0000E+00  0.0000E+00  0.0000E+00  0.0000E+00
    -40.579  0.0000E+00  0.0000E+00  0.0000E+00  0.0000E+00  0.0000E+00  0.0000E+00  0.0000E+00  0.0000E+00  0.0000E+00  0.0000E+00  0.0000E+00  0.0000E+00  0.0000E+00  0.0000E+00  0.0000E+00  0.0000E+00  0.0000E+00  0.0000E+00