   2   2   1   0
  0.1858265E+02  0.3021217E-09  0.3021217E-09  0.4701572E-09  0.5000000E-15
  1.000000000000000E-004
  CAR 
 unknown system                          
     13.35207558    -45.94370124  301      5.52815438      1.00000000
    -45.944  0.0000E+00  0.0000E+00  0.0000E+00  0.0000E+00
    -45.746  0.0000E+00  0.0000E+00  0.0000E+00  0.0000E+00
    -45.548  0.0000E+00  0.0000E+00  0.0000E+00  0.0000E+00
    -45.351  0.0000E+00  0.0000E+00  0.0000E+00  0.0000E+00
    -45.153  0.0000E+00  0.0000E+00  0.0000E+00  0.0000E+00
    -44.955  0.0000E+00  0.0000E+00  0.0000E+00  0.0000E+00
    -44.758  0.0000E+00  0.0000E+00  0.0000E+00  0.0000E+00
    -44.560  0.0000E+00  0.0000E+00  0.0000E+00  0.0000E+00
    -44.362  0.0000E+00  0.0000E+00  0.0000E+00  0.0000E+00
    -44.165  0.0000E+00  0.0000E+00  0.0000E+00  0.0000E+00
    -43.967  0.0000E+00  0.0000E+00  0.0000E+00  0.0000E+00
    -43.770  0.6869E-05  0.5447E-05  0.1358E-05  0.1077E-05
    -43.572  0.7982E-03  0.6735E-03  0.1591E-03  0.1342E-03
    -43.374  0.4029E-01  0.3408E-01  0.8122E-02  0.6870E-02
    -43.177  0.1241E+01  0.1103E+01  0.2534E+00  0.2250E+00
    -42.979  0.6594E+01  0.6463E+01  0.1557E+01  0.1502E+01
    -42.781  0.2175E+01  0.2440E+01  0.1988E+01  0.1985E+01
    -42.584  0.0000E+00  0.3411E-02  0.2000E+01  0.2000E+01
    -42.386  0.0000E+00  0.0000E+00  0.2000E+01  0.2000E+01
    -42.188  0.0000E+00  0.0000E+00  0.2000E+01  0.2000E+01
    -41.991  0.0000E+00  0.0000E+00  0.2000E+01  0.2000E+01
    -41.793  0.0000E+00  0.0000E+00  0.2000E+01  0.2000E+01
    -41.595  0.0000E+00  0.0000E+00  0.2000E+01  0.2000E+01
    -41.398  0.0000E+00  0.0000E+00  0.2000E+01  0.2000E+01
    -41.200  0.0000E+00  0.0000E+00  0.2000E+01  0.2000E+01
    -41.002  0.0000E+00  0.0000E+00  0.2000E+01  0.2000E+01
    -40.805  0.0000E+00  0.0000E+00  0.2000E+01  0.2000E+01
    -40.607  0.0000E+00  0.0000E+00  0.2000E+01  0.2000E+01
    -40.409  0.0000E+00  0.0000E+00  0.2000E+01  0.2000E+01
    -40.212  0.0000E+00  0.0000E+00  0.2000E+01  0.2000E+01
    -40.014  0.0000E+00  0.0000E+00  0.2000E+01  0.2000E+01
    -39.816  0.0000E+00  0.0000E+00  0.2000E+01  0.2000E+01
    -39.619  0.0000E+00  0.0000E+00  0.2000E+01  0.2000E+01
    -39.421  0.0000E+00  0.0000E+00  0.2000E+01  0.2000E+01
    -39.224  0.0000E+00  0.0000E+00  0.2000E+01  0.2000E+01
    -39.026  0.0000E+00  0.0000E+00  0.2000E+01  0.2000E+01
    -38.828  0.0000E+00  0.0000E+00  0.2000E+01  0.2000E+01
    -38.631  0.0000E+00  0.0000E+00  0.2000E+01  0.2000E+01
    -38.433  0.0000E+00  0.0000E+00  0.2000E+01  0.2000E+01
    -38.235  0.0000E+00  0.0000E+00  0.2000E+01  0.2000E+01
    -38.038  0.0000E+00  0.0000E+00  0.2000E+01  0.2000E+01
    -37.840  0.0000E+00  0.0000E+00  0.2000E+01  0.2000E+01
    -37.642  0.0000E+00  0.0000E+00  0.2000E+01  0.2000E+01
    -37.445  0.0000E+00  0.0000E+00  0.2000E+01  0.2000E+01
    -37.247  0.0000E+00  0.0000E+00  0.2000E+01  0.2000E+01
    -37.049  0.0000E+00  0.0000E+00  0.2000E+01  0.2000E+01
    -36.852  0.0000E+00  0.0000E+00  0.2000E+01  0.2000E+01
    -36.654  0.0000E+00  0.0000E+00  0.2000E+01  0.2000E+01
    -36.456  0.0000E+00  0.0000E+00  0.2000E+01  0.2000E+01
    -36.259  0.0000E+00  0.0000E+00  0.2000E+01  0.2000E+01
    -36.061  0.0000E+00  0.0000E+00  0.2000E+01  0.2000E+01
    -35.863  0.0000E+00  0.0000E+00  0.2000E+01  0.2000E+01
    -35.666  0.0000E+00  0.0000E+00  0.2000E+01  0.2000E+01
    -35.468  0.0000E+00  0.0000E+00  0.2000E+01  0.2000E+01
    -35.270  0.0000E+00  0.0000E+00  0.2000E+01  0.2000E+01
    -35.073  0.0000E+00  0.0000E+00  0.2000E+01  0.2000E+01
    -34.875  0.0000E+00  0.0000E+00  0.2000E+01  0.2000E+01
    -34.678  0.0000E+00  0.0000E+00  0.2000E+01  0.2000E+01
    -34.480  0.0000E+00  0.0000E+00  0.2000E+01  0.2000E+01
    -34.282  0.0000E+00  0.0000E+00  0.2000E+01  0.2000E+01
    -34.085  0.0000E+00  0.0000E+00  0.2000E+01  0.2000E+01
    -33.887  0.0000E+00  0.0000E+00  0.2000E+01  0.2000E+01
    -33.689  0.0000E+00  0.0000E+00  0.2000E+01  0.2000E+01
    -33.492  0.0000E+00  0.0000E+00  0.2000E+01  0.2000E+01
    -33.294  0.0000E+00  0.0000E+00  0.2000E+01  0.2000E+01
    -33.096  0.0000E+00  0.0000E+00  0.2000E+01  0.2000E+01
    -32.899  0.0000E+00  0.0000E+00  0.2000E+01  0.2000E+01
    -32.701  0.0000E+00  0.0000E+00  0.2000E+01  0.2000E+01
    -32.503  0.0000E+00  0.0000E+00  0.2000E+01  0.2000E+01
    -32.306  0.0000E+00  0.0000E+00  0.2000E+01  0.2000E+01
    -32.108  0.0000E+00  0.0000E+00  0.2000E+01  0.2000E+01
    -31.910  0.0000E+00  0.0000E+00  0.2000E+01  0.2000E+01
    -31.713  0.0000E+00  0.0000E+00  0.2000E+01  0.2000E+01
    -31.515  0.0000E+00  0.0000E+00  0.2000E+01  0.2000E+01
    -31.317  0.0000E+00  0.0000E+00  0.2000E+01  0.2000E+01
    -31.120  0.0000E+00  0.0000E+00  0.2000E+01  0.2000E+01
    -30.922  0.0000E+00  0.0000E+00  0.2000E+01  0.2000E+01
    -30.724  0.0000E+00  0.0000E+00  0.2000E+01  0.2000E+01
    -30.527  0.0000E+00  0.0000E+00  0.2000E+01  0.2000E+01
    -30.329  0.0000E+00  0.0000E+00  0.2000E+01  0.2000E+01
    -30.131  0.0000E+00  0.0000E+00  0.2000E+01  0.2000E+01
    -29.934  0.0000E+00  0.0000E+00  0.2000E+01  0.2000E+01
    -29.736  0.0000E+00  0.0000E+00  0.2000E+01  0.2000E+01
    -29.539  0.0000E+00  0.0000E+00  0.2000E+01  0.2000E+01
    -29.341  0.0000E+00  0.0000E+00  0.2000E+01  0.2000E+01
    -29.143  0.0000E+00  0.0000E+00  0.2000E+01  0.2000E+01
    -28.946  0.0000E+00  0.0000E+00  0.2000E+01  0.2000E+01
    -28.748  0.0000E+00  0.0000E+00  0.2000E+01  0.2000E+01
    -28.550  0.0000E+00  0.0000E+00  0.2000E+01  0.2000E+01
    -28.353  0.0000E+00  0.0000E+00  0.2000E+01  0.2000E+01
    -28.155  0.0000E+00  0.0000E+00  0.2000E+01  0.2000E+01
    -27.957  0.0000E+00  0.0000E+00  0.2000E+01  0.2000E+01
    -27.760  0.0000E+00  0.0000E+00  0.2000E+01  0.2000E+01
    -27.562  0.0000E+00  0.0000E+00  0.2000E+01  0.2000E+01
    -27.364  0.0000E+00  0.0000E+00  0.2000E+01  0.2000E+01
    -27.167  0.0000E+00  0.0000E+00  0.2000E+01  0.2000E+01
    -26.969  0.0000E+00  0.0000E+00  0.2000E+01  0.2000E+01
    -26.771  0.0000E+00  0.0000E+00  0.2000E+01  0.2000E+01
    -26.574  0.0000E+00  0.0000E+00  0.2000E+01  0.2000E+01
    -26.376  0.0000E+00  0.0000E+00  0.2000E+01  0.2000E+01
    -26.178  0.0000E+00  0.0000E+00  0.2000E+01  0.2000E+01
    -25.981  0.0000E+00  0.0000E+00  0.2000E+01  0.2000E+01
    -25.783  0.0000E+00  0.0000E+00  0.2000E+01  0.2000E+01
    -25.585  0.0000E+00  0.0000E+00  0.2000E+01  0.2000E+01
    -25.388  0.0000E+00  0.0000E+00  0.2000E+01  0.2000E+01
    -25.190  0.0000E+00  0.0000E+00  0.2000E+01  0.2000E+01
    -24.993  0.0000E+00  0.0000E+00  0.2000E+01  0.2000E+01
    -24.795  0.0000E+00  0.0000E+00  0.2000E+01  0.2000E+01
    -24.597  0.0000E+00  0.0000E+00  0.2000E+01  0.2000E+01
    -24.400  0.0000E+00  0.0000E+00  0.2000E+01  0.2000E+01
    -24.202  0.0000E+00  0.0000E+00  0.2000E+01  0.2000E+01
    -24.004  0.0000E+00  0.0000E+00  0.2000E+01  0.2000E+01
    -23.807  0.0000E+00  0.0000E+00  0.2000E+01  0.2000E+01
    -23.609  0.0000E+00  0.0000E+00  0.2000E+01  0.2000E+01
    -23.411  0.0000E+00  0.0000E+00  0.2000E+01  0.2000E+01
    -23.214  0.0000E+00  0.0000E+00  0.2000E+01  0.2000E+01
    -23.016  0.0000E+00  0.0000E+00  0.2000E+01  0.2000E+01
    -22.818  0.5422E-04  0.4360E-04  0.2000E+01  0.2000E+01
    -22.621  0.3383E-02  0.2830E-02  0.2001E+01  0.2001E+01
    -22.423  0.1566E+00  0.1330E+00  0.2032E+01  0.2027E+01
    -22.225  0.2485E+01  0.2288E+01  0.2523E+01  0.2479E+01
    -22.028  0.4908E+01  0.4937E+01  0.3493E+01  0.3455E+01
    -21.830  0.4437E+01  0.4393E+01  0.4373E+01  0.4326E+01
    -21.632  0.7172E+01  0.7010E+01  0.5794E+01  0.5715E+01
    -21.435  0.8918E+01  0.9057E+01  0.7560E+01  0.7508E+01
    -21.237  0.2119E+01  0.2367E+01  0.7986E+01  0.7983E+01
    -21.039  0.3173E-01  0.4326E-01  0.8000E+01  0.8000E+01
    -20.842  0.0000E+00  0.0000E+00  0.8000E+01  0.8000E+01
    -20.644  0.0000E+00  0.0000E+00  0.8000E+01  0.8000E+01
    -20.447  0.0000E+00  0.0000E+00  0.8000E+01  0.8000E+01
    -20.249  0.0000E+00  0.0000E+00  0.8000E+01  0.8000E+01
    -20.051  0.0000E+00  0.0000E+00  0.8000E+01  0.8000E+01
    -19.854  0.0000E+00  0.0000E+00  0.8000E+01  0.8000E+01
    -19.656  0.0000E+00  0.0000E+00  0.8000E+01  0.8000E+01
    -19.458  0.0000E+00  0.0000E+00  0.8000E+01  0.8000E+01
    -19.261  0.0000E+00  0.0000E+00  0.8000E+01  0.8000E+01
    -19.063  0.0000E+00  0.0000E+00  0.8000E+01  0.8000E+01
    -18.865  0.0000E+00  0.0000E+00  0.8000E+01  0.8000E+01
    -18.668  0.0000E+00  0.0000E+00  0.8000E+01  0.8000E+01
    -18.470  0.0000E+00  0.0000E+00  0.8000E+01  0.8000E+01
    -18.272  0.0000E+00  0.0000E+00  0.8000E+01  0.8000E+01
    -18.075  0.0000E+00  0.0000E+00  0.8000E+01  0.8000E+01
    -17.877  0.0000E+00  0.0000E+00  0.8000E+01  0.8000E+01
    -17.679  0.0000E+00  0.0000E+00  0.8000E+01  0.8000E+01
    -17.482  0.0000E+00  0.0000E+00  0.8000E+01  0.8000E+01
    -17.284  0.0000E+00  0.0000E+00  0.8000E+01  0.8000E+01
    -17.086  0.0000E+00  0.0000E+00  0.8000E+01  0.8000E+01
    -16.889  0.0000E+00  0.0000E+00  0.8000E+01  0.8000E+01
    -16.691  0.0000E+00  0.0000E+00  0.8000E+01  0.8000E+01
    -16.493  0.0000E+00  0.0000E+00  0.8000E+01  0.8000E+01
    -16.296  0.0000E+00  0.0000E+00  0.8000E+01  0.8000E+01
    -16.098  0.0000E+00  0.0000E+00  0.8000E+01  0.8000E+01
    -15.901  0.0000E+00  0.0000E+00  0.8000E+01  0.8000E+01
    -15.703  0.0000E+00  0.0000E+00  0.8000E+01  0.8000E+01
    -15.505  0.0000E+00  0.0000E+00  0.8000E+01  0.8000E+01
    -15.308  0.0000E+00  0.0000E+00  0.8000E+01  0.8000E+01
    -15.110  0.0000E+00  0.0000E+00  0.8000E+01  0.8000E+01
    -14.912  0.0000E+00  0.0000E+00  0.8000E+01  0.8000E+01
    -14.715  0.0000E+00  0.0000E+00  0.8000E+01  0.8000E+01
    -14.517  0.0000E+00  0.0000E+00  0.8000E+01  0.8000E+01
    -14.319  0.0000E+00  0.0000E+00  0.8000E+01  0.8000E+01
    -14.122  0.0000E+00  0.0000E+00  0.8000E+01  0.8000E+01
    -13.924  0.0000E+00  0.0000E+00  0.8000E+01  0.8000E+01
    -13.726  0.0000E+00  0.0000E+00  0.8000E+01  0.8000E+01
    -13.529  0.0000E+00  0.0000E+00  0.8000E+01  0.8000E+01
    -13.331  0.0000E+00  0.0000E+00  0.8000E+01  0.8000E+01
    -13.133  0.0000E+00  0.0000E+00  0.8000E+01  0.8000E+01
    -12.936  0.0000E+00  0.0000E+00  0.8000E+01  0.8000E+01
    -12.738  0.0000E+00  0.0000E+00  0.8000E+01  0.8000E+01
    -12.540  0.0000E+00  0.0000E+00  0.8000E+01  0.8000E+01
    -12.343  0.0000E+00  0.0000E+00  0.8000E+01  0.8000E+01
    -12.145  0.0000E+00  0.0000E+00  0.8000E+01  0.8000E+01
    -11.947  0.0000E+00  0.0000E+00  0.8000E+01  0.8000E+01
    -11.750  0.0000E+00  0.0000E+00  0.8000E+01  0.8000E+01
    -11.552  0.0000E+00  0.0000E+00  0.8000E+01  0.8000E+01
    -11.354  0.0000E+00  0.0000E+00  0.8000E+01  0.8000E+01
    -11.157  0.0000E+00  0.0000E+00  0.8000E+01  0.8000E+01
    -10.959  0.0000E+00  0.0000E+00  0.8000E+01  0.8000E+01
    -10.762  0.0000E+00  0.0000E+00  0.8000E+01  0.8000E+01
    -10.564  0.0000E+00  0.0000E+00  0.8000E+01  0.8000E+01
    -10.366  0.0000E+00  0.0000E+00  0.8000E+01  0.8000E+01
    -10.169  0.0000E+00  0.0000E+00  0.8000E+01  0.8000E+01
     -9.971  0.0000E+00  0.0000E+00  0.8000E+01  0.8000E+01
     -9.773  0.0000E+00  0.0000E+00  0.8000E+01  0.8000E+01
     -9.576  0.0000E+00  0.0000E+00  0.8000E+01  0.8000E+01
     -9.378  0.0000E+00  0.0000E+00  0.8000E+01  0.8000E+01
     -9.180  0.0000E+00  0.0000E+00  0.8000E+01  0.8000E+01
     -8.983  0.0000E+00  0.0000E+00  0.8000E+01  0.8000E+01
     -8.785  0.0000E+00  0.0000E+00  0.8000E+01  0.8000E+01
     -8.587  0.0000E+00  0.0000E+00  0.8000E+01  0.8000E+01
     -8.390  0.0000E+00  0.0000E+00  0.8000E+01  0.8000E+01
     -8.192  0.0000E+00  0.0000E+00  0.8000E+01  0.8000E+01
     -7.994  0.0000E+00  0.0000E+00  0.8000E+01  0.8000E+01
     -7.797  0.0000E+00  0.0000E+00  0.8000E+01  0.8000E+01
     -7.599  0.0000E+00  0.0000E+00  0.8000E+01  0.8000E+01
     -7.401  0.0000E+00  0.0000E+00  0.8000E+01  0.8000E+01
     -7.204  0.0000E+00  0.0000E+00  0.8000E+01  0.8000E+01
     -7.006  0.0000E+00  0.0000E+00  0.8000E+01  0.8000E+01
     -6.808  0.0000E+00  0.0000E+00  0.8000E+01  0.8000E+01
     -6.611  0.0000E+00  0.0000E+00  0.8000E+01  0.8000E+01
     -6.413  0.0000E+00  0.0000E+00  0.8000E+01  0.8000E+01
     -6.216  0.0000E+00  0.0000E+00  0.8000E+01  0.8000E+01
     -6.018  0.0000E+00  0.0000E+00  0.8000E+01  0.8000E+01
     -5.820  0.0000E+00  0.0000E+00  0.8000E+01  0.8000E+01
     -5.623  0.0000E+00  0.0000E+00  0.8000E+01  0.8000E+01
     -5.425  0.0000E+00  0.0000E+00  0.8000E+01  0.8000E+01
     -5.227  0.0000E+00  0.0000E+00  0.8000E+01  0.8000E+01
     -5.030  0.0000E+00  0.0000E+00  0.8000E+01  0.8000E+01
     -4.832  0.0000E+00  0.0000E+00  0.8000E+01  0.8000E+01
     -4.634  0.0000E+00  0.0000E+00  0.8000E+01  0.8000E+01
     -4.437  0.0000E+00  0.0000E+00  0.8000E+01  0.8000E+01
     -4.239  0.0000E+00  0.0000E+00  0.8000E+01  0.8000E+01
     -4.041  0.0000E+00  0.0000E+00  0.8000E+01  0.8000E+01
     -3.844  0.0000E+00  0.0000E+00  0.8000E+01  0.8000E+01
     -3.646  0.0000E+00  0.0000E+00  0.8000E+01  0.8000E+01
     -3.448  0.0000E+00  0.0000E+00  0.8000E+01  0.8000E+01
     -3.251  0.0000E+00  0.0000E+00  0.8000E+01  0.8000E+01
     -3.053  0.0000E+00  0.0000E+00  0.8000E+01  0.8000E+01
     -2.855  0.0000E+00  0.0000E+00  0.8000E+01  0.8000E+01
     -2.658  0.0000E+00  0.0000E+00  0.8000E+01  0.8000E+01
     -2.460  0.0000E+00  0.0000E+00  0.8000E+01  0.8000E+01
     -2.262  0.0000E+00  0.0000E+00  0.8000E+01  0.8000E+01
     -2.065  0.0000E+00  0.0000E+00  0.8000E+01  0.8000E+01
     -1.867  0.0000E+00  0.0000E+00  0.8000E+01  0.8000E+01
     -1.670  0.0000E+00  0.0000E+00  0.8000E+01  0.8000E+01
     -1.472  0.0000E+00  0.0000E+00  0.8000E+01  0.8000E+01
     -1.274  0.0000E+00  0.0000E+00  0.8000E+01  0.8000E+01
     -1.077  0.0000E+00  0.0000E+00  0.8000E+01  0.8000E+01
     -0.879  0.0000E+00  0.0000E+00  0.8000E+01  0.8000E+01
     -0.681  0.0000E+00  0.0000E+00  0.8000E+01  0.8000E+01
     -0.484  0.3181E-06  0.1732E-06  0.8000E+01  0.8000E+01
     -0.286  0.1958E-04  0.1306E-04  0.8000E+01  0.8000E+01
     -0.088  0.8914E-03  0.6176E-03  0.8000E+01  0.8000E+01
      0.109  0.1290E-01  0.1038E-01  0.8003E+01  0.8002E+01
      0.307  0.4413E-01  0.4224E-01  0.8011E+01  0.8011E+01
      0.505  0.4344E-01  0.4127E-01  0.8020E+01  0.8019E+01
      0.702  0.9508E-01  0.9356E-01  0.8039E+01  0.8037E+01
      0.900  0.6552E-01  0.6709E-01  0.8052E+01  0.8051E+01
      1.098  0.1032E+00  0.9530E-01  0.8072E+01  0.8069E+01
      1.295  0.1199E+00  0.1260E+00  0.8096E+01  0.8094E+01
      1.493  0.1458E+00  0.1369E+00  0.8125E+01  0.8122E+01
      1.691  0.1101E+00  0.1183E+00  0.8147E+01  0.8145E+01
      1.888  0.1487E+00  0.1355E+00  0.8177E+01  0.8172E+01
      2.086  0.2320E+00  0.2341E+00  0.8223E+01  0.8218E+01
      2.284  0.1872E+00  0.1922E+00  0.8260E+01  0.8256E+01
      2.481  0.1913E+00  0.1834E+00  0.8298E+01  0.8293E+01
      2.679  0.2582E+00  0.2533E+00  0.8349E+01  0.8343E+01
      2.876  0.3221E+00  0.3171E+00  0.8413E+01  0.8406E+01
      3.074  0.3804E+00  0.3730E+00  0.8488E+01  0.8480E+01
      3.272  0.3809E+00  0.3937E+00  0.8564E+01  0.8558E+01
      3.469  0.6436E+00  0.5765E+00  0.8691E+01  0.8672E+01
      3.667  0.9848E+00  0.1011E+01  0.8886E+01  0.8872E+01
      3.865  0.8337E+00  0.8354E+00  0.9052E+01  0.9038E+01
      4.062  0.9322E+00  0.9154E+00  0.9237E+01  0.9220E+01
      4.260  0.1161E+01  0.1147E+01  0.9467E+01  0.9447E+01
      4.458  0.1184E+01  0.1192E+01  0.9702E+01  0.9684E+01
      4.655  0.1311E+01  0.1304E+01  0.9962E+01  0.9943E+01
      4.853  0.1059E+01  0.1082E+01  0.1017E+02  0.1016E+02
      5.051  0.9622E+00  0.9421E+00  0.1036E+02  0.1034E+02
      5.248  0.1196E+01  0.1155E+01  0.1060E+02  0.1057E+02
      5.446  0.1435E+01  0.1431E+01  0.1089E+02  0.1086E+02
      5.644  0.1685E+01  0.1652E+01  0.1122E+02  0.1119E+02
      5.841  0.1587E+01  0.1628E+01  0.1153E+02  0.1151E+02
      6.039  0.9349E+00  0.1000E+01  0.1172E+02  0.1171E+02
      6.237  0.6640E+00  0.6732E+00  0.1185E+02  0.1184E+02
      6.434  0.6648E+00  0.6648E+00  0.1198E+02  0.1197E+02
      6.632  0.8959E+00  0.8610E+00  0.1216E+02  0.1214E+02
      6.830  0.1602E+01  0.1571E+01  0.1248E+02  0.1246E+02
      7.027  0.1770E+01  0.1753E+01  0.1283E+02  0.1280E+02
      7.225  0.1897E+01  0.1921E+01  0.1321E+02  0.1318E+02
      7.422  0.1898E+01  0.1867E+01  0.1358E+02  0.1355E+02
      7.620  0.2053E+01  0.2069E+01  0.1399E+02  0.1397E+02
      7.818  0.2138E+01  0.2145E+01  0.1442E+02  0.1439E+02
      8.015  0.1660E+01  0.1702E+01  0.1474E+02  0.1473E+02
      8.213  0.1214E+01  0.1233E+01  0.1499E+02  0.1497E+02
      8.411  0.8756E+00  0.8964E+00  0.1516E+02  0.1515E+02
      8.608  0.6081E+00  0.6159E+00  0.1528E+02  0.1528E+02
      8.806  0.5489E+00  0.5512E+00  0.1539E+02  0.1539E+02
      9.004  0.5092E+00  0.5119E+00  0.1549E+02  0.1549E+02
      9.201  0.4454E+00  0.4428E+00  0.1558E+02  0.1558E+02
      9.399  0.4308E+00  0.4301E+00  0.1567E+02  0.1566E+02
      9.597  0.3946E+00  0.4073E+00  0.1574E+02  0.1574E+02
      9.794  0.3053E+00  0.3050E+00  0.1581E+02  0.1580E+02
      9.992  0.3290E+00  0.3286E+00  0.1587E+02  0.1587E+02
     10.190  0.2737E+00  0.2653E+00  0.1592E+02  0.1592E+02
     10.387  0.2491E+00  0.2668E+00  0.1597E+02  0.1597E+02
     10.585  0.7677E-01  0.9927E-01  0.1599E+02  0.1599E+02
     10.783  0.4715E-01  0.3174E-01  0.1600E+02  0.1600E+02
     10.980  0.3386E-02  0.3896E-03  0.1600E+02  0.1600E+02
     11.178  0.0000E+00  0.0000E+00  0.1600E+02  0.1600E+02
     11.376  0.0000E+00  0.0000E+00  0.1600E+02  0.1600E+02
     11.573  0.0000E+00  0.0000E+00  0.1600E+02  0.1600E+02
     11.771  0.0000E+00  0.0000E+00  0.1600E+02  0.1600E+02
     11.969  0.0000E+00  0.0000E+00  0.1600E+02  0.1600E+02
     12.166  0.0000E+00  0.0000E+00  0.1600E+02  0.1600E+02
     12.364  0.0000E+00  0.0000E+00  0.1600E+02  0.1600E+02
     12.561  0.0000E+00  0.0000E+00  0.1600E+02  0.1600E+02
     12.759  0.0000E+00  0.0000E+00  0.1600E+02  0.1600E+02
     12.957  0.0000E+00  0.0000E+00  0.1600E+02  0.1600E+02
     13.154  0.0000E+00  0.0000E+00  0.1600E+02  0.1600E+02
     13.352  0.0000E+00  0.0000E+00  0.1600E+02  0.1600E+02
     13.35207558    -45.94370124  301      5.52815438      1.00000000
    -45.944  0.0000E+00  0.0000E+00  0.0000E+00  0.0000E+00  0.0000E+00  0.0000E+00  0.0000E+00  0.0000E+00  0.0000E+00  0.0000E+00  0.0000E+00  0.0000E+00  0.0000E+00  0.0000E+00  0.0000E+00  0.0000E+00  0.0000E+00  0.0000E+00
    -45.746  0.0000E+00  0.0000E+00  0.0000E+00  0.0000E+00  0.0000E+00  0.0000E+00  0.0000E+00  0.0000E+00  0.0000E+00  0.0000E+00  0.0000E+00  0.0000E+00  0.0000E+00  0.0000E+00  0.0000E+00  0.0000E+00  0.0000E+00  0.0000E+00
    -45.548  0.0000E+00  0.0000E+00  0.0000E+00  0.0000E+00  0.0000E+00  0.0000E+00  0.0000E+00  0.0000E+00  0.0000E+00  0.0000E+00  0.0000E+00  0.0000E+00  0.0000E+00  0.0000E+00  0.0000E+00  0.0000E+00  0.0000E+00  0.0000E+00
    -45.351  0.0000E+00  0.0000E+00  0.0000E+00  0.0000E+00  0.0000E+00  0.0000E+00  0.0000E+00  0.0000E+00  0.0000E+00  0.0000E+00  0.0000E+00  0.0000E+00  0.0000E+00  0.0000E+00  0.0000E+00  0.0000E+00  0.0000E+00  0.0000E+00
    -45.153  0.0000E+00  0.0000E+00  0.0000E+00  0.0000E+00  0.0000E+00  0.0000E+00  0.0000E+00  0.0000E+00  0.0000E+00  0.0000E+00  0.0000E+00  0.0000E+00  0.0000E+00  0.0000E+00  0.0000E+00  0.0000E+00  0.0000E+00  0.0000E+00
    -44.955  0.0000E+00  0.0000E+00  0.0000E+00  0.0000E+00  0.0000E+00  0.0000E+00  0.0000E+00  0.0000E+00  0.0000E+00  0.0000E+00  0.0000E+00  0.0000E+00  0.0000E+00  0.0000E+00  0.0000E+00  0.0000E+00  0.0000E+00  0.0000E+00
    -44.758  0.0000E+00  0.0000E+00  0.0000E+00  0.0000E+00  0.0000E+00  0.0000E+00  0.0000E+00  0.0000E+00  0.0000E+00  0.0000E+00  0.0000E+00  0.0000E+00  0.0000E+00  0.0000E+00  0.0000E+00  0.0000E+00  0.0000E+00  0.0000E+00
    -44.560  0.0000E+00  0.0000E+00  0.0000E+00  0.0000E+00  0.0000E+00  0.0000E+00  0.0000E+00  0.0000E+00  0.0000E+00  0.0000E+00  0.0000E+00  0.0000E+00  0.0000E+00  0.0000E+00  0.0000E+00  0.0000E+00  0.0000E+00  0.0000E+00
    -44.362  0.0000E+00  0.0000E+00  0.0000E+00  0.0000E+00  0.0000E+00  0.0000E+00  0.0000E+00  0.0000E+00  0.0000E+00  0.0000E+00  0.0000E+00  0.0000E+00  0.0000E+00  0.0000E+00  0.0000E+00  0.0000E+00  0.0000E+00  0.0000E+00
    -44.165  0.0000E+00  0.0000E+00  0.0000E+00  0.0000E+00  0.0000E+00  0.0000E+00  0.0000E+00  0.0000E+00  0.0000E+00  0.0000E+00  0.0000E+00  0.0000E+00  0.0000E+00  0.0000E+00  0.0000E+00  0.0000E+00  0.0000E+00  0.0000E+00
    -43.967  0.0000E+00  0.0000E+00  0.0000E+00  0.0000E+00  0.0000E+00  0.0000E+00  0.0000E+00  0.0000E+00  0.0000E+00  0.0000E+00  0.0000E+00  0.0000E+00  0.0000E+00  0.0000E+00  0.0000E+00  0.0000E+00  0.0000E+00  0.0000E+00
    -43.770  0.3407E-05  0.2701E-05  0.6860E-10  0.5024E-10  0.7677E-10  0.6358E-10  0.6860E-10  0.5024E-10  0.2924E-11  0.1924E-11  0.1352E-11  0.1035E-11  0.1320E-10  0.9920E-11  0.1352E-11  0.1035E-11  0.2924E-11  0.1924E-11
    -43.572  0.3965E-03  0.3345E-03  0.9127E-08  0.7693E-08  0.1202E-07  0.1013E-07  0.9127E-08  0.7693E-08  0.1109E-08  0.9415E-09  0.1129E-08  0.9505E-09  0.2074E-08  0.1763E-08  0.1129E-08  0.9505E-09  0.1109E-08  0.9415E-09
    -43.374  0.2001E-01  0.1693E-01  0.4618E-06  0.3900E-06  0.6082E-06  0.5137E-06  0.4618E-06  0.3900E-06  0.5636E-07  0.4788E-07  0.5743E-07  0.4839E-07  0.1050E-06  0.8940E-07  0.5743E-07  0.4839E-07  0.5636E-07  0.4788E-07
    -43.177  0.6168E+00  0.5485E+00  0.1448E-04  0.1291E-04  0.1957E-04  0.1740E-04  0.1448E-04  0.1291E-04  0.2251E-05  0.1972E-05  0.2452E-05  0.2118E-05  0.3652E-05  0.3232E-05  0.2452E-05  0.2118E-05  0.2251E-05  0.1972E-05
    -42.979  0.3284E+01  0.3219E+01  0.4995E-04  0.5014E-04  0.7677E-04  0.7664E-04  0.4995E-04  0.5014E-04  0.1462E-04  0.1445E-04  0.2115E-04  0.2054E-04  0.2249E-04  0.2216E-04  0.2115E-04  0.2054E-04  0.1462E-04  0.1445E-04
    -42.781  0.1084E+01  0.1216E+01  0.9770E-05  0.1112E-04  0.1641E-04  0.1868E-04  0.9770E-05  0.1112E-04  0.4023E-05  0.4568E-05  0.7131E-05  0.8021E-05  0.6808E-05  0.7711E-05  0.7131E-05  0.8021E-05  0.4023E-05  0.4568E-05
    -42.584  0.0000E+00  0.1702E-02  0.0000E+00  0.8421E-08  0.0000E+00  0.1561E-15  0.0000E+00  0.8421E-08  0.0000E+00  0.5272E-08  0.0000E+00  0.3617E-17  0.0000E+00  0.2653E-08  0.0000E+00  0.3617E-17  0.0000E+00  0.5272E-08
    -42.386  0.0000E+00  0.0000E+00  0.0000E+00  0.0000E+00  0.0000E+00  0.0000E+00  0.0000E+00  0.0000E+00  0.0000E+00  0.0000E+00  0.0000E+00  0.0000E+00  0.0000E+00  0.0000E+00  0.0000E+00  0.0000E+00  0.0000E+00  0.0000E+00
    -42.188  0.0000E+00  0.0000E+00  0.0000E+00  0.0000E+00  0.0000E+00  0.0000E+00  0.0000E+00  0.0000E+00  0.0000E+00  0.0000E+00  0.0000E+00  0.0000E+00  0.0000E+00  0.0000E+00  0.0000E+00  0.0000E+00  0.0000E+00  0.0000E+00
    -41.991  0.0000E+00  0.0000E+00  0.0000E+00  0.0000E+00  0.0000E+00  0.0000E+00  0.0000E+00  0.0000E+00  0.0000E+00  0.0000E+00  0.0000E+00  0.0000E+00  0.0000E+00  0.0000E+00  0.0000E+00  0.0000E+00  0.0000E+00  0.0000E+00
    -41.793  0.0000E+00  0.0000E+00  0.0000E+00  0.0000E+00  0.0000E+00  0.0000E+00  0.0000E+00  0.0000E+00  0.0000E+00  0.0000E+00  0.0000E+00  0.0000E+00  0.0000E+00  0.0000E+00  0.0000E+00  0.0000E+00  0.0000E+00  0.0000E+00
    -41.595  0.0000E+00  0.0000E+00  0.0000E+00  0.0000E+00  0.0000E+00  0.0000E+00  0.0000E+00  0.0000E+00  0.0000E+00  0.0000E+00  0.0000E+00  0.0000E+00  0.0000E+00  0.0000E+00  0.0000E+00  0.0000E+00  0.0000E+00  0.0000E+00
    -41.398  0.0000E+00  0.0000E+00  0.0000E+00  0.0000E+00  0.0000E+00  0.0000E+00  0.0000E+00  0.0000E+00  0.0000E+00  0.0000E+00  0.0000E+00  0.0000E+00  0.0000E+00  0.0000E+00  0.0000E+00  0.0000E+00  0.0000E+00  0.0000E+00
    -41.200  0.0000E+00  0.0000E+00  0.0000E+00  0.0000E+00  0.0000E+00  0.0000E+00  0.0000E+00  0.0000E+00  0.0000E+00  0.0000E+00  0.0000E+00  0.0000E+00  0.0000E+00  0.0000E+00  0.0000E+00  0.0000E+00  0.0000E+00  0.0000E+00
    -41.002  0.0000E+00  0.0000E+00  0.0000E+00  0.0000E+00  0.0000E+00  0.0000E+00  0.0000E+00  0.0000E+00  0.0000E+00  0.0000E+00  0.0000E+00  0.0000E+00  0.0000E+00  0.0000E+00  0.0000E+00  0.0000E+00  0.0000E+00  0.0000E+00
    -40.805  0.0000E+00  0.0000E+00  0.0000E+00  0.0000E+00  0.0000E+00  0.0000E+00  0.0000E+00  0.0000E+00  0.0000E+00  0.0000E+00  0.0000E+00  0.0000E+00  0.0000E+00  0.0000E+00  0.0000E+00  0.0000E+00  0.0000E+00  0.0000E+00
    -40.607  0.0000E+00  0.0000E+00  0.0000E+00  0.0000E+00  0.0000E+00  0.0000E+00  0.0000E+00  0.0000E+00  0.0000E+00  0.0000E+00  0.0000E+00  0.0000E+00  0.0000E+00  0.0000E+00  0.0000E+00  0.0000E+00  0.0000E+00  0.0000E+00
    -40.409  0.0000E+00  0.0000E+00  0.0000E+00  0.0000E+00  0.0000E+00  0.0000E+00  0.0000E+00  0.0000E+00  0.0000E+00  0.0000E+00  0.0000E+00  0.0000E+00  0.0000E+00  0.0000E+00  0.0000E+00  0.0000E+00  0.0000E+00  0.0000E+00
    -40.212  0.0000E+00  0.0000E+00  0.0000E+00  0.0000E+00  0.0000E+00  0.0000E+00  0.0000E+00  0.0000E+00  0.0000E+00  0.0000E+00  0.0000E+00  0.0000E+00  0.0000E+00  0.0000E+00  0.0000E+00  0.0000E+00  0.0000E+00  0.0000E+00
    -40.014  0.0000E+00  0.0000E+00  0.0000E+00  0.0000E+00  0.0000E+00  0.0000E+00  0.0000E+00  0.0000E+00  0.0000E+00  0.0000E+00  0.0000E+00  0.0000E+00  0.0000E+00  0.0000E+00  0.0000E+00  0.0000E+00  0.0000E+00  0.0000E+00
    -39.816  0.0000E+00  0.0000E+00  0.0000E+00  0.0000E+00  0.0000E+00  0.0000E+00  0.0000E+00  0.0000E+00  0.0000E+00  0.0000E+00  0.0000E+00  0.0000E+00  0.0000E+00  0.0000E+00  0.0000E+00  0.0000E+00  0.0000E+00  0.0000E+00
    -39.619  0.0000E+00  0.0000E+00  0.0000E+00  0.0000E+00  0.0000E+00  0.0000E+00  0.0000E+00  0.0000E+00  0.0000E+00  0.0000E+00  0.0000E+00  0.0000E+00  0.0000E+00  0.0000E+00  0.0000E+00  0.0000E+00  0.0000E+00  0.0000E+00
    -39.421  0.0000E+00  0.0000E+00  0.0000E+00  0.0000E+00  0.0000E+00  0.0000E+00  0.0000E+00  0.0000E+00  0.0000E+00  0.0000E+00  0.0000E+00  0.0000E+00  0.0000E+00  0.0000E+00  0.0000E+00  0.0000E+00  0.0000E+00  0.0000E+00
    -39.224  0.0000E+00  0.0000E+00  0.0000E+00  0.0000E+00  0.0000E+00  0.0000E+00  0.0000E+00  0.0000E+00  0.0000E+00  0.0000E+00  0.0000E+00  0.0000E+00  0.0000E+00  0.0000E+00  0.0000E+00  0.0000E+00  0.0000E+00  0.0000E+00
    -39.026  0.0000E+00  0.0000E+00  0.0000E+00  0.0000E+00  0.0000E+00  0.0000E+00  0.0000E+00  0.0000E+00  0.0000E+00  0.0000E+00  0.0000E+00  0.0000E+00  0.0000E+00  0.0000E+00  0.0000E+00  0.0000E+00  0.0000E+00  0.0000E+00
    -38.828  0.0000E+00  0.0000E+00  0.0000E+00  0.0000E+00  0.0000E+00  0.0000E+00  0.0000E+00  0.0000E+00  0.0000E+00  0.0000E+00  0.0000E+00  0.0000E+00  0.0000E+00  0.0000E+00  0.0000E+00  0.0000E+00  0.0000E+00  0.0000E+00
    -38.631  0.0000E+00  0.0000E+00  0.0000E+00  0.0000E+00  0.0000E+00  0.0000E+00  0.0000E+00  0.0000E+00  0.0000E+00  0.0000E+00  0.0000E+00  0.0000E+00  0.0000E+00  0.0000E+00  0.0000E+00  0.0000E+00  0.0000E+00  0.0000E+00
    -38.433  0.0000E+00  0.0000E+00  0.0000E+00  0.0000E+00  0.0000E+00  0.0000E+00  0.0000E+00  0.0000E+00  0.0000E+00  0.0000E+00  0.0000E+00  0.0000E+00  0.0000E+00  0.0000E+00  0.0000E+00  0.0000E+00  0.0000E+00  0.0000E+00
    -38.235  0.0000E+00  0.0000E+00  0.0000E+00  0.0000E+00  0.0000E+00  0.0000E+00  0.0000E+00  0.0000E+00  0.0000E+00  0.0000E+00  0.0000E+00  0.0000E+00  0.0000E+00  0.0000E+00  0.0000E+00  0.0000E+00  0.0000E+00  0.0000E+00
    -38.038  0.0000E+00  0.0000E+00  0.0000E+00  0.0000E+00  0.0000E+00  0.0000E+00  0.0000E+00  0.0000E+00  0.0000E+00  0.0000E+00  0.0000E+00  0.0000E+00  0.0000E+00  0.0000E+00  0.0000E+00  0.0000E+00  0.0000E+00  0.0000E+00
    -37.840  0.0000E+00  0.0000E+00  0.0000E+00  0.0000E+00  0.0000E+00  0.0000E+00  0.0000E+00  0.0000E+00  0.0000E+00  0.0000E+00  0.0000E+00  0.0000E+00  0.0000E+00  0.0000E+00  0.0000E+00  0.0000E+00  0.0000E+00  0.0000E+00
    -37.642  0.0000E+00  0.0000E+00  0.0000E+00  0.0000E+00  0.0000E+00  0.0000E+00  0.0000E+00  0.0000E+00  0.0000E+00  0.0000E+00  0.0000E+00  0.0000E+00  0.0000E+00  0.0000E+00  0.0000E+00  0.0000E+00  0.0000E+00  0.0000E+00
    -37.445  0.0000E+00  0.0000E+00  0.0000E+00  0.0000E+00  0.0000E+00  0.0000E+00  0.0000E+00  0.0000E+00  0.0000E+00  0.0000E+00  0.0000E+00  0.0000E+00  0.0000E+00  0.0000E+00  0.0000E+00  0.0000E+00  0.0000E+00  0.0000E+00
    -37.247  0.0000E+00  0.0000E+00  0.0000E+00  0.0000E+00  0.0000E+00  0.0000E+00  0.0000E+00  0.0000E+00  0.0000E+00  0.0000E+00  0.0000E+00  0.0000E+00  0.0000E+00  0.0000E+00  0.0000E+00  0.0000E+00  0.0000E+00  0.0000E+00
    -37.049  0.0000E+00  0.0000E+00  0.0000E+00  0.0000E+00  0.0000E+00  0.0000E+00  0.0000E+00  0.0000E+00  0.0000E+00  0.0000E+00  0.0000E+00  0.0000E+00  0.0000E+00  0.0000E+00  0.0000E+00  0.0000E+00  0.0000E+00  0.0000E+00
    -36.852  0.0000E+00  0.0000E+00  0.0000E+00  0.0000E+00  0.0000E+00  0.0000E+00  0.0000E+00  0.0000E+00  0.0000E+00  0.0000E+00  0.0000E+00  0.0000E+00  0.0000E+00  0.0000E+00  0.0000E+00  0.0000E+00  0.0000E+00  0.0000E+00
    -36.654  0.0000E+00  0.0000E+00  0.0000E+00  0.0000E+00  0.0000E+00  0.0000E+00  0.0000E+00  0.0000E+00  0.0000E+00  0.0000E+00  0.0000E+00  0.0000E+00  0.0000E+00  0.0000E+00  0.0000E+00  0.0000E+00  0.0000E+00  0.0000E+00
    -36.456  0.0000E+00  0.0000E+00  0.0000E+00  0.0000E+00  0.0000E+00  0.0000E+00  0.0000E+00  0.0000E+00  0.0000E+00  0.0000E+00  0.0000E+00  0.0000E+00  0.0000E+00  0.0000E+00  0.0000E+00  0.0000E+00  0.0000E+00  0.0000E+00
    -36.259  0.0000E+00  0.0000E+00  0.0000E+00  0.0000E+00  0.0000E+00  0.0000E+00  0.0000E+00  0.0000E+00  0.0000E+00  0.0000E+00  0.0000E+00  0.0000E+00  0.0000E+00  0.0000E+00  0.0000E+00  0.0000E+00  0.0000E+00  0.0000E+00
    -36.061  0.0000E+00  0.0000E+00  0.0000E+00  0.0000E+00  0.0000E+00  0.0000E+00  0.0000E+00  0.0000E+00  0.0000E+00  0.0000E+00  0.0000E+00  0.0000E+00  0.0000E+00  0.0000E+00  0.0000E+00  0.0000E+00  0.0000E+00  0.0000E+00