   2   2   1   0
  0.2048174E+02  0.3120818E-09  0.3120817E-09  0.4856569E-09  0.5000000E-15
  1.000000000000000E-004
  CAR 
 unknown system                          
     12.17780644    -46.80442127  301      4.84512529      1.00000000
    -46.804  0.0000E+00  0.0000E+00  0.0000E+00  0.0000E+00
    -46.608  0.0000E+00  0.0000E+00  0.0000E+00  0.0000E+00
    -46.411  0.0000E+00  0.0000E+00  0.0000E+00  0.0000E+00
    -46.215  0.0000E+00  0.0000E+00  0.0000E+00  0.0000E+00
    -46.018  0.0000E+00  0.0000E+00  0.0000E+00  0.0000E+00
    -45.821  0.0000E+00  0.0000E+00  0.0000E+00  0.0000E+00
    -45.625  0.0000E+00  0.0000E+00  0.0000E+00  0.0000E+00
    -45.428  0.0000E+00  0.0000E+00  0.0000E+00  0.0000E+00
    -45.232  0.0000E+00  0.0000E+00  0.0000E+00  0.0000E+00
    -45.035  0.0000E+00  0.0000E+00  0.0000E+00  0.0000E+00
    -44.838  0.0000E+00  0.0000E+00  0.0000E+00  0.0000E+00
    -44.642  0.1554E-04  0.1247E-04  0.3055E-05  0.2451E-05
    -44.445  0.1745E-02  0.1552E-02  0.3462E-03  0.3077E-03
    -44.249  0.8627E-01  0.7684E-01  0.1731E-01  0.1541E-01
    -44.052  0.2538E+01  0.2352E+01  0.5164E+00  0.4778E+00
    -43.855  0.6819E+01  0.6934E+01  0.1857E+01  0.1841E+01
    -43.659  0.7027E+00  0.7830E+00  0.1997E+01  0.1997E+01
    -43.462  0.0000E+00  0.0000E+00  0.2000E+01  0.2000E+01
    -43.265  0.0000E+00  0.0000E+00  0.2000E+01  0.2000E+01
    -43.069  0.0000E+00  0.0000E+00  0.2000E+01  0.2000E+01
    -42.872  0.0000E+00  0.0000E+00  0.2000E+01  0.2000E+01
    -42.676  0.0000E+00  0.0000E+00  0.2000E+01  0.2000E+01
    -42.479  0.0000E+00  0.0000E+00  0.2000E+01  0.2000E+01
    -42.282  0.0000E+00  0.0000E+00  0.2000E+01  0.2000E+01
    -42.086  0.0000E+00  0.0000E+00  0.2000E+01  0.2000E+01
    -41.889  0.0000E+00  0.0000E+00  0.2000E+01  0.2000E+01
    -41.693  0.0000E+00  0.0000E+00  0.2000E+01  0.2000E+01
    -41.496  0.0000E+00  0.0000E+00  0.2000E+01  0.2000E+01
    -41.299  0.0000E+00  0.0000E+00  0.2000E+01  0.2000E+01
    -41.103  0.0000E+00  0.0000E+00  0.2000E+01  0.2000E+01
    -40.906  0.0000E+00  0.0000E+00  0.2000E+01  0.2000E+01
    -40.710  0.0000E+00  0.0000E+00  0.2000E+01  0.2000E+01
    -40.513  0.0000E+00  0.0000E+00  0.2000E+01  0.2000E+01
    -40.316  0.0000E+00  0.0000E+00  0.2000E+01  0.2000E+01
    -40.120  0.0000E+00  0.0000E+00  0.2000E+01  0.2000E+01
    -39.923  0.0000E+00  0.0000E+00  0.2000E+01  0.2000E+01
    -39.727  0.0000E+00  0.0000E+00  0.2000E+01  0.2000E+01
    -39.530  0.0000E+00  0.0000E+00  0.2000E+01  0.2000E+01
    -39.333  0.0000E+00  0.0000E+00  0.2000E+01  0.2000E+01
    -39.137  0.0000E+00  0.0000E+00  0.2000E+01  0.2000E+01
    -38.940  0.0000E+00  0.0000E+00  0.2000E+01  0.2000E+01
    -38.744  0.0000E+00  0.0000E+00  0.2000E+01  0.2000E+01
    -38.547  0.0000E+00  0.0000E+00  0.2000E+01  0.2000E+01
    -38.350  0.0000E+00  0.0000E+00  0.2000E+01  0.2000E+01
    -38.154  0.0000E+00  0.0000E+00  0.2000E+01  0.2000E+01
    -37.957  0.0000E+00  0.0000E+00  0.2000E+01  0.2000E+01
    -37.760  0.0000E+00  0.0000E+00  0.2000E+01  0.2000E+01
    -37.564  0.0000E+00  0.0000E+00  0.2000E+01  0.2000E+01
    -37.367  0.0000E+00  0.0000E+00  0.2000E+01  0.2000E+01
    -37.171  0.0000E+00  0.0000E+00  0.2000E+01  0.2000E+01
    -36.974  0.0000E+00  0.0000E+00  0.2000E+01  0.2000E+01
    -36.777  0.0000E+00  0.0000E+00  0.2000E+01  0.2000E+01
    -36.581  0.0000E+00  0.0000E+00  0.2000E+01  0.2000E+01
    -36.384  0.0000E+00  0.0000E+00  0.2000E+01  0.2000E+01
    -36.188  0.0000E+00  0.0000E+00  0.2000E+01  0.2000E+01
    -35.991  0.0000E+00  0.0000E+00  0.2000E+01  0.2000E+01
    -35.794  0.0000E+00  0.0000E+00  0.2000E+01  0.2000E+01
    -35.598  0.0000E+00  0.0000E+00  0.2000E+01  0.2000E+01
    -35.401  0.0000E+00  0.0000E+00  0.2000E+01  0.2000E+01
    -35.205  0.0000E+00  0.0000E+00  0.2000E+01  0.2000E+01
    -35.008  0.0000E+00  0.0000E+00  0.2000E+01  0.2000E+01
    -34.811  0.0000E+00  0.0000E+00  0.2000E+01  0.2000E+01
    -34.615  0.0000E+00  0.0000E+00  0.2000E+01  0.2000E+01
    -34.418  0.0000E+00  0.0000E+00  0.2000E+01  0.2000E+01
    -34.222  0.0000E+00  0.0000E+00  0.2000E+01  0.2000E+01
    -34.025  0.0000E+00  0.0000E+00  0.2000E+01  0.2000E+01
    -33.828  0.0000E+00  0.0000E+00  0.2000E+01  0.2000E+01
    -33.632  0.0000E+00  0.0000E+00  0.2000E+01  0.2000E+01
    -33.435  0.0000E+00  0.0000E+00  0.2000E+01  0.2000E+01
    -33.239  0.0000E+00  0.0000E+00  0.2000E+01  0.2000E+01
    -33.042  0.0000E+00  0.0000E+00  0.2000E+01  0.2000E+01
    -32.845  0.0000E+00  0.0000E+00  0.2000E+01  0.2000E+01
    -32.649  0.0000E+00  0.0000E+00  0.2000E+01  0.2000E+01
    -32.452  0.0000E+00  0.0000E+00  0.2000E+01  0.2000E+01
    -32.255  0.0000E+00  0.0000E+00  0.2000E+01  0.2000E+01
    -32.059  0.0000E+00  0.0000E+00  0.2000E+01  0.2000E+01
    -31.862  0.0000E+00  0.0000E+00  0.2000E+01  0.2000E+01
    -31.666  0.0000E+00  0.0000E+00  0.2000E+01  0.2000E+01
    -31.469  0.0000E+00  0.0000E+00  0.2000E+01  0.2000E+01
    -31.272  0.0000E+00  0.0000E+00  0.2000E+01  0.2000E+01
    -31.076  0.0000E+00  0.0000E+00  0.2000E+01  0.2000E+01
    -30.879  0.0000E+00  0.0000E+00  0.2000E+01  0.2000E+01
    -30.683  0.0000E+00  0.0000E+00  0.2000E+01  0.2000E+01
    -30.486  0.0000E+00  0.0000E+00  0.2000E+01  0.2000E+01
    -30.289  0.0000E+00  0.0000E+00  0.2000E+01  0.2000E+01
    -30.093  0.0000E+00  0.0000E+00  0.2000E+01  0.2000E+01
    -29.896  0.0000E+00  0.0000E+00  0.2000E+01  0.2000E+01
    -29.700  0.0000E+00  0.0000E+00  0.2000E+01  0.2000E+01
    -29.503  0.0000E+00  0.0000E+00  0.2000E+01  0.2000E+01
    -29.306  0.0000E+00  0.0000E+00  0.2000E+01  0.2000E+01
    -29.110  0.0000E+00  0.0000E+00  0.2000E+01  0.2000E+01
    -28.913  0.0000E+00  0.0000E+00  0.2000E+01  0.2000E+01
    -28.717  0.0000E+00  0.0000E+00  0.2000E+01  0.2000E+01
    -28.520  0.0000E+00  0.0000E+00  0.2000E+01  0.2000E+01
    -28.323  0.0000E+00  0.0000E+00  0.2000E+01  0.2000E+01
    -28.127  0.0000E+00  0.0000E+00  0.2000E+01  0.2000E+01
    -27.930  0.0000E+00  0.0000E+00  0.2000E+01  0.2000E+01
    -27.734  0.0000E+00  0.0000E+00  0.2000E+01  0.2000E+01
    -27.537  0.0000E+00  0.0000E+00  0.2000E+01  0.2000E+01
    -27.340  0.0000E+00  0.0000E+00  0.2000E+01  0.2000E+01
    -27.144  0.0000E+00  0.0000E+00  0.2000E+01  0.2000E+01
    -26.947  0.0000E+00  0.0000E+00  0.2000E+01  0.2000E+01
    -26.750  0.0000E+00  0.0000E+00  0.2000E+01  0.2000E+01
    -26.554  0.0000E+00  0.0000E+00  0.2000E+01  0.2000E+01
    -26.357  0.0000E+00  0.0000E+00  0.2000E+01  0.2000E+01
    -26.161  0.0000E+00  0.0000E+00  0.2000E+01  0.2000E+01
    -25.964  0.0000E+00  0.0000E+00  0.2000E+01  0.2000E+01
    -25.767  0.0000E+00  0.0000E+00  0.2000E+01  0.2000E+01
    -25.571  0.0000E+00  0.0000E+00  0.2000E+01  0.2000E+01
    -25.374  0.0000E+00  0.0000E+00  0.2000E+01  0.2000E+01
    -25.178  0.0000E+00  0.0000E+00  0.2000E+01  0.2000E+01
    -24.981  0.0000E+00  0.0000E+00  0.2000E+01  0.2000E+01
    -24.784  0.0000E+00  0.0000E+00  0.2000E+01  0.2000E+01
    -24.588  0.0000E+00  0.0000E+00  0.2000E+01  0.2000E+01
    -24.391  0.0000E+00  0.0000E+00  0.2000E+01  0.2000E+01
    -24.195  0.0000E+00  0.0000E+00  0.2000E+01  0.2000E+01
    -23.998  0.0000E+00  0.0000E+00  0.2000E+01  0.2000E+01
    -23.801  0.0000E+00  0.0000E+00  0.2000E+01  0.2000E+01
    -23.605  0.3450E-04  0.2876E-04  0.2000E+01  0.2000E+01
    -23.408  0.2497E-02  0.2206E-02  0.2000E+01  0.2000E+01
    -23.212  0.1211E+00  0.1075E+00  0.2024E+01  0.2022E+01
    -23.015  0.2607E+01  0.2440E+01  0.2537E+01  0.2501E+01
    -22.818  0.6197E+01  0.6184E+01  0.3755E+01  0.3717E+01
    -22.622  0.7780E+01  0.7649E+01  0.5288E+01  0.5223E+01
    -22.425  0.1096E+02  0.1105E+02  0.7448E+01  0.7401E+01
    -22.228  0.2682E+01  0.2911E+01  0.7983E+01  0.7981E+01
    -22.032  0.2780E-01  0.3640E-01  0.8000E+01  0.8000E+01
    -21.835  0.0000E+00  0.0000E+00  0.8000E+01  0.8000E+01
    -21.639  0.0000E+00  0.0000E+00  0.8000E+01  0.8000E+01
    -21.442  0.0000E+00  0.0000E+00  0.8000E+01  0.8000E+01
    -21.245  0.0000E+00  0.0000E+00  0.8000E+01  0.8000E+01
    -21.049  0.0000E+00  0.0000E+00  0.8000E+01  0.8000E+01
    -20.852  0.0000E+00  0.0000E+00  0.8000E+01  0.8000E+01
    -20.656  0.0000E+00  0.0000E+00  0.8000E+01  0.8000E+01
    -20.459  0.0000E+00  0.0000E+00  0.8000E+01  0.8000E+01
    -20.262  0.0000E+00  0.0000E+00  0.8000E+01  0.8000E+01
    -20.066  0.0000E+00  0.0000E+00  0.8000E+01  0.8000E+01
    -19.869  0.0000E+00  0.0000E+00  0.8000E+01  0.8000E+01
    -19.673  0.0000E+00  0.0000E+00  0.8000E+01  0.8000E+01
    -19.476  0.0000E+00  0.0000E+00  0.8000E+01  0.8000E+01
    -19.279  0.0000E+00  0.0000E+00  0.8000E+01  0.8000E+01
    -19.083  0.0000E+00  0.0000E+00  0.8000E+01  0.8000E+01
    -18.886  0.0000E+00  0.0000E+00  0.8000E+01  0.8000E+01
    -18.690  0.0000E+00  0.0000E+00  0.8000E+01  0.8000E+01
    -18.493  0.0000E+00  0.0000E+00  0.8000E+01  0.8000E+01
    -18.296  0.0000E+00  0.0000E+00  0.8000E+01  0.8000E+01
    -18.100  0.0000E+00  0.0000E+00  0.8000E+01  0.8000E+01
    -17.903  0.0000E+00  0.0000E+00  0.8000E+01  0.8000E+01
    -17.707  0.0000E+00  0.0000E+00  0.8000E+01  0.8000E+01
    -17.510  0.0000E+00  0.0000E+00  0.8000E+01  0.8000E+01
    -17.313  0.0000E+00  0.0000E+00  0.8000E+01  0.8000E+01
    -17.117  0.0000E+00  0.0000E+00  0.8000E+01  0.8000E+01
    -16.920  0.0000E+00  0.0000E+00  0.8000E+01  0.8000E+01
    -16.723  0.0000E+00  0.0000E+00  0.8000E+01  0.8000E+01
    -16.527  0.0000E+00  0.0000E+00  0.8000E+01  0.8000E+01
    -16.330  0.0000E+00  0.0000E+00  0.8000E+01  0.8000E+01
    -16.134  0.0000E+00  0.0000E+00  0.8000E+01  0.8000E+01
    -15.937  0.0000E+00  0.0000E+00  0.8000E+01  0.8000E+01
    -15.740  0.0000E+00  0.0000E+00  0.8000E+01  0.8000E+01
    -15.544  0.0000E+00  0.0000E+00  0.8000E+01  0.8000E+01
    -15.347  0.0000E+00  0.0000E+00  0.8000E+01  0.8000E+01
    -15.151  0.0000E+00  0.0000E+00  0.8000E+01  0.8000E+01
    -14.954  0.0000E+00  0.0000E+00  0.8000E+01  0.8000E+01
    -14.757  0.0000E+00  0.0000E+00  0.8000E+01  0.8000E+01
    -14.561  0.0000E+00  0.0000E+00  0.8000E+01  0.8000E+01
    -14.364  0.0000E+00  0.0000E+00  0.8000E+01  0.8000E+01
    -14.168  0.0000E+00  0.0000E+00  0.8000E+01  0.8000E+01
    -13.971  0.0000E+00  0.0000E+00  0.8000E+01  0.8000E+01
    -13.774  0.0000E+00  0.0000E+00  0.8000E+01  0.8000E+01
    -13.578  0.0000E+00  0.0000E+00  0.8000E+01  0.8000E+01
    -13.381  0.0000E+00  0.0000E+00  0.8000E+01  0.8000E+01
    -13.185  0.0000E+00  0.0000E+00  0.8000E+01  0.8000E+01
    -12.988  0.0000E+00  0.0000E+00  0.8000E+01  0.8000E+01
    -12.791  0.0000E+00  0.0000E+00  0.8000E+01  0.8000E+01
    -12.595  0.0000E+00  0.0000E+00  0.8000E+01  0.8000E+01
    -12.398  0.0000E+00  0.0000E+00  0.8000E+01  0.8000E+01
    -12.202  0.0000E+00  0.0000E+00  0.8000E+01  0.8000E+01
    -12.005  0.0000E+00  0.0000E+00  0.8000E+01  0.8000E+01
    -11.808  0.0000E+00  0.0000E+00  0.8000E+01  0.8000E+01
    -11.612  0.0000E+00  0.0000E+00  0.8000E+01  0.8000E+01
    -11.415  0.0000E+00  0.0000E+00  0.8000E+01  0.8000E+01
    -11.218  0.0000E+00  0.0000E+00  0.8000E+01  0.8000E+01
    -11.022  0.0000E+00  0.0000E+00  0.8000E+01  0.8000E+01
    -10.825  0.0000E+00  0.0000E+00  0.8000E+01  0.8000E+01
    -10.629  0.0000E+00  0.0000E+00  0.8000E+01  0.8000E+01
    -10.432  0.0000E+00  0.0000E+00  0.8000E+01  0.8000E+01
    -10.235  0.0000E+00  0.0000E+00  0.8000E+01  0.8000E+01
    -10.039  0.0000E+00  0.0000E+00  0.8000E+01  0.8000E+01
     -9.842  0.0000E+00  0.0000E+00  0.8000E+01  0.8000E+01
     -9.646  0.0000E+00  0.0000E+00  0.8000E+01  0.8000E+01
     -9.449  0.0000E+00  0.0000E+00  0.8000E+01  0.8000E+01
     -9.252  0.0000E+00  0.0000E+00  0.8000E+01  0.8000E+01
     -9.056  0.0000E+00  0.0000E+00  0.8000E+01  0.8000E+01
     -8.859  0.0000E+00  0.0000E+00  0.8000E+01  0.8000E+01
     -8.663  0.0000E+00  0.0000E+00  0.8000E+01  0.8000E+01
     -8.466  0.0000E+00  0.0000E+00  0.8000E+01  0.8000E+01
     -8.269  0.0000E+00  0.0000E+00  0.8000E+01  0.8000E+01
     -8.073  0.0000E+00  0.0000E+00  0.8000E+01  0.8000E+01
     -7.876  0.0000E+00  0.0000E+00  0.8000E+01  0.8000E+01
     -7.680  0.0000E+00  0.0000E+00  0.8000E+01  0.8000E+01
     -7.483  0.0000E+00  0.0000E+00  0.8000E+01  0.8000E+01
     -7.286  0.0000E+00  0.0000E+00  0.8000E+01  0.8000E+01
     -7.090  0.0000E+00  0.0000E+00  0.8000E+01  0.8000E+01
     -6.893  0.0000E+00  0.0000E+00  0.8000E+01  0.8000E+01
     -6.697  0.0000E+00  0.0000E+00  0.8000E+01  0.8000E+01
     -6.500  0.0000E+00  0.0000E+00  0.8000E+01  0.8000E+01
     -6.303  0.0000E+00  0.0000E+00  0.8000E+01  0.8000E+01
     -6.107  0.0000E+00  0.0000E+00  0.8000E+01  0.8000E+01
     -5.910  0.0000E+00  0.0000E+00  0.8000E+01  0.8000E+01
     -5.713  0.0000E+00  0.0000E+00  0.8000E+01  0.8000E+01
     -5.517  0.0000E+00  0.0000E+00  0.8000E+01  0.8000E+01
     -5.320  0.0000E+00  0.0000E+00  0.8000E+01  0.8000E+01
     -5.124  0.0000E+00  0.0000E+00  0.8000E+01  0.8000E+01
     -4.927  0.0000E+00  0.0000E+00  0.8000E+01  0.8000E+01
     -4.730  0.0000E+00  0.0000E+00  0.8000E+01  0.8000E+01
     -4.534  0.0000E+00  0.0000E+00  0.8000E+01  0.8000E+01
     -4.337  0.0000E+00  0.0000E+00  0.8000E+01  0.8000E+01
     -4.141  0.0000E+00  0.0000E+00  0.8000E+01  0.8000E+01
     -3.944  0.0000E+00  0.0000E+00  0.8000E+01  0.8000E+01
     -3.747  0.0000E+00  0.0000E+00  0.8000E+01  0.8000E+01
     -3.551  0.0000E+00  0.0000E+00  0.8000E+01  0.8000E+01
     -3.354  0.0000E+00  0.0000E+00  0.8000E+01  0.8000E+01
     -3.158  0.0000E+00  0.0000E+00  0.8000E+01  0.8000E+01
     -2.961  0.0000E+00  0.0000E+00  0.8000E+01  0.8000E+01
     -2.764  0.0000E+00  0.0000E+00  0.8000E+01  0.8000E+01
     -2.568  0.0000E+00  0.0000E+00  0.8000E+01  0.8000E+01
     -2.371  0.0000E+00  0.0000E+00  0.8000E+01  0.8000E+01
     -2.175  0.0000E+00  0.0000E+00  0.8000E+01  0.8000E+01
     -1.978  0.0000E+00  0.0000E+00  0.8000E+01  0.8000E+01
     -1.781  0.0000E+00  0.0000E+00  0.8000E+01  0.8000E+01
     -1.585  0.0000E+00  0.0000E+00  0.8000E+01  0.8000E+01
     -1.388  0.0000E+00  0.0000E+00  0.8000E+01  0.8000E+01
     -1.191  0.0000E+00  0.0000E+00  0.8000E+01  0.8000E+01
     -0.995  0.1580E-05  0.1146E-05  0.8000E+01  0.8000E+01
     -0.798  0.8224E-04  0.5985E-04  0.8000E+01  0.8000E+01
     -0.602  0.2968E-02  0.2320E-02  0.8001E+01  0.8000E+01
     -0.405  0.2758E-01  0.2440E-01  0.8006E+01  0.8005E+01
     -0.208  0.4686E-01  0.4734E-01  0.8015E+01  0.8015E+01
     -0.012  0.8346E-01  0.7763E-01  0.8032E+01  0.8030E+01
      0.185  0.8233E-01  0.8598E-01  0.8048E+01  0.8047E+01
      0.381  0.9113E-01  0.8540E-01  0.8066E+01  0.8064E+01
      0.578  0.1378E+00  0.1400E+00  0.8093E+01  0.8091E+01
      0.775  0.1418E+00  0.1357E+00  0.8121E+01  0.8118E+01
      0.971  0.1251E+00  0.1319E+00  0.8146E+01  0.8144E+01
      1.168  0.1593E+00  0.1488E+00  0.8177E+01  0.8173E+01
      1.364  0.2367E+00  0.2389E+00  0.8224E+01  0.8220E+01
      1.561  0.1873E+00  0.1913E+00  0.8261E+01  0.8258E+01
      1.758  0.2026E+00  0.1959E+00  0.8301E+01  0.8297E+01
      1.954  0.2764E+00  0.2731E+00  0.8355E+01  0.8351E+01
      2.151  0.3039E+00  0.3014E+00  0.8415E+01  0.8410E+01
      2.347  0.3539E+00  0.3517E+00  0.8485E+01  0.8479E+01
      2.544  0.3436E+00  0.3508E+00  0.8553E+01  0.8549E+01
      2.741  0.4242E+00  0.3899E+00  0.8637E+01  0.8626E+01
      2.937  0.8177E+00  0.8153E+00  0.8798E+01  0.8786E+01
      3.134  0.7576E+00  0.7635E+00  0.8947E+01  0.8937E+01
      3.330  0.8577E+00  0.8383E+00  0.9116E+01  0.9103E+01
      3.527  0.9977E+00  0.1008E+01  0.9313E+01  0.9302E+01
      3.724  0.1015E+01  0.1003E+01  0.9513E+01  0.9500E+01
      3.920  0.1133E+01  0.1134E+01  0.9737E+01  0.9723E+01
      4.117  0.1415E+01  0.1407E+01  0.1002E+02  0.1000E+02
      4.314  0.1128E+01  0.1122E+01  0.1024E+02  0.1022E+02
      4.510  0.1226E+01  0.1202E+01  0.1048E+02  0.1046E+02
      4.707  0.1587E+01  0.1562E+01  0.1079E+02  0.1077E+02
      4.903  0.1649E+01  0.1630E+01  0.1112E+02  0.1109E+02
      5.100  0.1761E+01  0.1788E+01  0.1147E+02  0.1144E+02
      5.297  0.1125E+01  0.1187E+01  0.1169E+02  0.1168E+02
      5.493  0.7357E+00  0.7475E+00  0.1183E+02  0.1183E+02
      5.690  0.7510E+00  0.7488E+00  0.1198E+02  0.1197E+02
      5.886  0.9606E+00  0.9390E+00  0.1217E+02  0.1216E+02
      6.083  0.1680E+01  0.1651E+01  0.1250E+02  0.1248E+02
      6.280  0.2059E+01  0.2044E+01  0.1291E+02  0.1289E+02
      6.476  0.2145E+01  0.2150E+01  0.1333E+02  0.1331E+02
      6.673  0.2134E+01  0.2138E+01  0.1375E+02  0.1373E+02
      6.869  0.2134E+01  0.2139E+01  0.1417E+02  0.1416E+02
      7.066  0.2134E+01  0.2150E+01  0.1460E+02  0.1458E+02
      7.263  0.1511E+01  0.1537E+01  0.1489E+02  0.1488E+02
      7.459  0.1114E+01  0.1129E+01  0.1511E+02  0.1511E+02
      7.656  0.7229E+00  0.7343E+00  0.1526E+02  0.1525E+02
      7.852  0.6254E+00  0.6271E+00  0.1538E+02  0.1538E+02
      8.049  0.5673E+00  0.5696E+00  0.1549E+02  0.1549E+02
      8.246  0.4964E+00  0.4926E+00  0.1559E+02  0.1559E+02
      8.442  0.4939E+00  0.4781E+00  0.1569E+02  0.1568E+02
      8.639  0.4085E+00  0.4347E+00  0.1577E+02  0.1577E+02
      8.835  0.3520E+00  0.3526E+00  0.1584E+02  0.1584E+02
      9.032  0.3211E+00  0.3219E+00  0.1590E+02  0.1590E+02
      9.229  0.3297E+00  0.3348E+00  0.1597E+02  0.1597E+02
      9.425  0.1020E+00  0.1277E+00  0.1599E+02  0.1599E+02
      9.622  0.5362E-01  0.3869E-01  0.1600E+02  0.1600E+02
      9.819  0.3304E-02  0.4854E-03  0.1600E+02  0.1600E+02
     10.015  0.0000E+00  0.0000E+00  0.1600E+02  0.1600E+02
     10.212  0.0000E+00  0.0000E+00  0.1600E+02  0.1600E+02
     10.408  0.0000E+00  0.0000E+00  0.1600E+02  0.1600E+02
     10.605  0.0000E+00  0.0000E+00  0.1600E+02  0.1600E+02
     10.802  0.0000E+00  0.0000E+00  0.1600E+02  0.1600E+02
     10.998  0.0000E+00  0.0000E+00  0.1600E+02  0.1600E+02
     11.195  0.0000E+00  0.0000E+00  0.1600E+02  0.1600E+02
     11.391  0.0000E+00  0.0000E+00  0.1600E+02  0.1600E+02
     11.588  0.0000E+00  0.0000E+00  0.1600E+02  0.1600E+02
     11.785  0.0000E+00  0.0000E+00  0.1600E+02  0.1600E+02
     11.981  0.0000E+00  0.0000E+00  0.1600E+02  0.1600E+02
     12.178  0.0000E+00  0.0000E+00  0.1600E+02  0.1600E+02
     12.17780644    -46.80442127  301      4.84512529      1.00000000
    -46.804  0.0000E+00  0.0000E+00  0.0000E+00  0.0000E+00  0.0000E+00  0.0000E+00  0.0000E+00  0.0000E+00  0.0000E+00  0.0000E+00  0.0000E+00  0.0000E+00  0.0000E+00  0.0000E+00  0.0000E+00  0.0000E+00  0.0000E+00  0.0000E+00
    -46.608  0.0000E+00  0.0000E+00  0.0000E+00  0.0000E+00  0.0000E+00  0.0000E+00  0.0000E+00  0.0000E+00  0.0000E+00  0.0000E+00  0.0000E+00  0.0000E+00  0.0000E+00  0.0000E+00  0.0000E+00  0.0000E+00  0.0000E+00  0.0000E+00
    -46.411  0.0000E+00  0.0000E+00  0.0000E+00  0.0000E+00  0.0000E+00  0.0000E+00  0.0000E+00  0.0000E+00  0.0000E+00  0.0000E+00  0.0000E+00  0.0000E+00  0.0000E+00  0.0000E+00  0.0000E+00  0.0000E+00  0.0000E+00  0.0000E+00
    -46.215  0.0000E+00  0.0000E+00  0.0000E+00  0.0000E+00  0.0000E+00  0.0000E+00  0.0000E+00  0.0000E+00  0.0000E+00  0.0000E+00  0.0000E+00  0.0000E+00  0.0000E+00  0.0000E+00  0.0000E+00  0.0000E+00  0.0000E+00  0.0000E+00
    -46.018  0.0000E+00  0.0000E+00  0.0000E+00  0.0000E+00  0.0000E+00  0.0000E+00  0.0000E+00  0.0000E+00  0.0000E+00  0.0000E+00  0.0000E+00  0.0000E+00  0.0000E+00  0.0000E+00  0.0000E+00  0.0000E+00  0.0000E+00  0.0000E+00
    -45.821  0.0000E+00  0.0000E+00  0.0000E+00  0.0000E+00  0.0000E+00  0.0000E+00  0.0000E+00  0.0000E+00  0.0000E+00  0.0000E+00  0.0000E+00  0.0000E+00  0.0000E+00  0.0000E+00  0.0000E+00  0.0000E+00  0.0000E+00  0.0000E+00
    -45.625  0.0000E+00  0.0000E+00  0.0000E+00  0.0000E+00  0.0000E+00  0.0000E+00  0.0000E+00  0.0000E+00  0.0000E+00  0.0000E+00  0.0000E+00  0.0000E+00  0.0000E+00  0.0000E+00  0.0000E+00  0.0000E+00  0.0000E+00  0.0000E+00
    -45.428  0.0000E+00  0.0000E+00  0.0000E+00  0.0000E+00  0.0000E+00  0.0000E+00  0.0000E+00  0.0000E+00  0.0000E+00  0.0000E+00  0.0000E+00  0.0000E+00  0.0000E+00  0.0000E+00  0.0000E+00  0.0000E+00  0.0000E+00  0.0000E+00
    -45.232  0.0000E+00  0.0000E+00  0.0000E+00  0.0000E+00  0.0000E+00  0.0000E+00  0.0000E+00  0.0000E+00  0.0000E+00  0.0000E+00  0.0000E+00  0.0000E+00  0.0000E+00  0.0000E+00  0.0000E+00  0.0000E+00  0.0000E+00  0.0000E+00
    -45.035  0.0000E+00  0.0000E+00  0.0000E+00  0.0000E+00  0.0000E+00  0.0000E+00  0.0000E+00  0.0000E+00  0.0000E+00  0.0000E+00  0.0000E+00  0.0000E+00  0.0000E+00  0.0000E+00  0.0000E+00  0.0000E+00  0.0000E+00  0.0000E+00
    -44.838  0.0000E+00  0.0000E+00  0.0000E+00  0.0000E+00  0.0000E+00  0.0000E+00  0.0000E+00  0.0000E+00  0.0000E+00  0.0000E+00  0.0000E+00  0.0000E+00  0.0000E+00  0.0000E+00  0.0000E+00  0.0000E+00  0.0000E+00  0.0000E+00
    -44.642  0.7719E-05  0.6192E-05  0.9164E-10  0.7080E-10  0.1166E-09  0.8920E-10  0.9164E-10  0.7080E-10  0.5606E-11  0.4016E-11  0.4296E-11  0.2690E-11  0.1715E-10  0.1408E-10  0.4296E-11  0.2690E-11  0.5606E-11  0.4016E-11
    -44.445  0.8681E-03  0.7722E-03  0.8556E-08  0.7605E-08  0.1184E-07  0.1053E-07  0.8556E-08  0.7605E-08  0.1400E-08  0.1250E-08  0.1651E-08  0.1475E-08  0.2520E-08  0.2285E-08  0.1651E-08  0.1475E-08  0.1400E-08  0.1250E-08
    -44.249  0.4291E-01  0.3822E-01  0.4234E-06  0.3767E-06  0.5862E-06  0.5218E-06  0.4234E-06  0.3767E-06  0.6951E-07  0.6207E-07  0.8206E-07  0.7332E-07  0.1247E-06  0.1132E-06  0.8206E-07  0.7332E-07  0.6951E-07  0.6207E-07
    -44.052  0.1263E+01  0.1170E+01  0.1149E-04  0.1072E-04  0.1652E-04  0.1538E-04  0.1149E-04  0.1072E-04  0.2371E-05  0.2189E-05  0.3024E-05  0.2782E-05  0.3920E-05  0.3680E-05  0.3024E-05  0.2782E-05  0.2371E-05  0.2189E-05
    -43.855  0.3397E+01  0.3454E+01  0.2073E-04  0.2133E-04  0.3305E-04  0.3394E-04  0.2073E-04  0.2133E-04  0.6511E-05  0.6651E-05  0.1018E-04  0.1038E-04  0.1067E-04  0.1099E-04  0.1018E-04  0.1038E-04  0.6511E-05  0.6651E-05
    -43.659  0.3502E+00  0.3902E+00  0.1532E-05  0.1726E-05  0.2590E-05  0.2899E-05  0.1532E-05  0.1726E-05  0.6042E-06  0.6758E-06  0.1061E-05  0.1189E-05  0.1030E-05  0.1159E-05  0.1061E-05  0.1189E-05  0.6042E-06  0.6758E-06
    -43.462  0.0000E+00  0.0000E+00  0.0000E+00  0.0000E+00  0.0000E+00  0.0000E+00  0.0000E+00  0.0000E+00  0.0000E+00  0.0000E+00  0.0000E+00  0.0000E+00  0.0000E+00  0.0000E+00  0.0000E+00  0.0000E+00  0.0000E+00  0.0000E+00
    -43.265  0.0000E+00  0.0000E+00  0.0000E+00  0.0000E+00  0.0000E+00  0.0000E+00  0.0000E+00  0.0000E+00  0.0000E+00  0.0000E+00  0.0000E+00  0.0000E+00  0.0000E+00  0.0000E+00  0.0000E+00  0.0000E+00  0.0000E+00  0.0000E+00
    -43.069  0.0000E+00  0.0000E+00  0.0000E+00  0.0000E+00  0.0000E+00  0.0000E+00  0.0000E+00  0.0000E+00  0.0000E+00  0.0000E+00  0.0000E+00  0.0000E+00  0.0000E+00  0.0000E+00  0.0000E+00  0.0000E+00  0.0000E+00  0.0000E+00
    -42.872  0.0000E+00  0.0000E+00  0.0000E+00  0.0000E+00  0.0000E+00  0.0000E+00  0.0000E+00  0.0000E+00  0.0000E+00  0.0000E+00  0.0000E+00  0.0000E+00  0.0000E+00  0.0000E+00  0.0000E+00  0.0000E+00  0.0000E+00  0.0000E+00
    -42.676  0.0000E+00  0.0000E+00  0.0000E+00  0.0000E+00  0.0000E+00  0.0000E+00  0.0000E+00  0.0000E+00  0.0000E+00  0.0000E+00  0.0000E+00  0.0000E+00  0.0000E+00  0.0000E+00  0.0000E+00  0.0000E+00  0.0000E+00  0.0000E+00
    -42.479  0.0000E+00  0.0000E+00  0.0000E+00  0.0000E+00  0.0000E+00  0.0000E+00  0.0000E+00  0.0000E+00  0.0000E+00  0.0000E+00  0.0000E+00  0.0000E+00  0.0000E+00  0.0000E+00  0.0000E+00  0.0000E+00  0.0000E+00  0.0000E+00
    -42.282  0.0000E+00  0.0000E+00  0.0000E+00  0.0000E+00  0.0000E+00  0.0000E+00  0.0000E+00  0.0000E+00  0.0000E+00  0.0000E+00  0.0000E+00  0.0000E+00  0.0000E+00  0.0000E+00  0.0000E+00  0.0000E+00  0.0000E+00  0.0000E+00
    -42.086  0.0000E+00  0.0000E+00  0.0000E+00  0.0000E+00  0.0000E+00  0.0000E+00  0.0000E+00  0.0000E+00  0.0000E+00  0.0000E+00  0.0000E+00  0.0000E+00  0.0000E+00  0.0000E+00  0.0000E+00  0.0000E+00  0.0000E+00  0.0000E+00
    -41.889  0.0000E+00  0.0000E+00  0.0000E+00  0.0000E+00  0.0000E+00  0.0000E+00  0.0000E+00  0.0000E+00  0.0000E+00  0.0000E+00  0.0000E+00  0.0000E+00  0.0000E+00  0.0000E+00  0.0000E+00  0.0000E+00  0.0000E+00  0.0000E+00
    -41.693  0.0000E+00  0.0000E+00  0.0000E+00  0.0000E+00  0.0000E+00  0.0000E+00  0.0000E+00  0.0000E+00  0.0000E+00  0.0000E+00  0.0000E+00  0.0000E+00  0.0000E+00  0.0000E+00  0.0000E+00  0.0000E+00  0.0000E+00  0.0000E+00
    -41.496  0.0000E+00  0.0000E+00  0.0000E+00  0.0000E+00  0.0000E+00  0.0000E+00  0.0000E+00  0.0000E+00  0.0000E+00  0.0000E+00  0.0000E+00  0.0000E+00  0.0000E+00  0.0000E+00  0.0000E+00  0.0000E+00  0.0000E+00  0.0000E+00
    -41.299  0.0000E+00  0.0000E+00  0.0000E+00  0.0000E+00  0.0000E+00  0.0000E+00  0.0000E+00  0.0000E+00  0.0000E+00  0.0000E+00  0.0000E+00  0.0000E+00  0.0000E+00  0.0000E+00  0.0000E+00  0.0000E+00  0.0000E+00  0.0000E+00
    -41.103  0.0000E+00  0.0000E+00  0.0000E+00  0.0000E+00  0.0000E+00  0.0000E+00  0.0000E+00  0.0000E+00  0.0000E+00  0.0000E+00  0.0000E+00  0.0000E+00  0.0000E+00  0.0000E+00  0.0000E+00  0.0000E+00  0.0000E+00  0.0000E+00
    -40.906  0.0000E+00  0.0000E+00  0.0000E+00  0.0000E+00  0.0000E+00  0.0000E+00  0.0000E+00  0.0000E+00  0.0000E+00  0.0000E+00  0.0000E+00  0.0000E+00  0.0000E+00  0.0000E+00  0.0000E+00  0.0000E+00  0.0000E+00  0.0000E+00
    -40.710  0.0000E+00  0.0000E+00  0.0000E+00  0.0000E+00  0.0000E+00  0.0000E+00  0.0000E+00  0.0000E+00  0.0000E+00  0.0000E+00  0.0000E+00  0.0000E+00  0.0000E+00  0.0000E+00  0.0000E+00  0.0000E+00  0.0000E+00  0.0000E+00
    -40.513  0.0000E+00  0.0000E+00  0.0000E+00  0.0000E+00  0.0000E+00  0.0000E+00  0.0000E+00  0.0000E+00  0.0000E+00  0.0000E+00  0.0000E+00  0.0000E+00  0.0000E+00  0.0000E+00  0.0000E+00  0.0000E+00  0.0000E+00  0.0000E+00
    -40.316  0.0000E+00  0.0000E+00  0.0000E+00  0.0000E+00  0.0000E+00  0.0000E+00  0.0000E+00  0.0000E+00  0.0000E+00  0.0000E+00  0.0000E+00  0.0000E+00  0.0000E+00  0.0000E+00  0.0000E+00  0.0000E+00  0.0000E+00  0.0000E+00
    -40.120  0.0000E+00  0.0000E+00  0.0000E+00  0.0000E+00  0.0000E+00  0.0000E+00  0.0000E+00  0.0000E+00  0.0000E+00  0.0000E+00  0.0000E+00  0.0000E+00  0.0000E+00  0.0000E+00  0.0000E+00  0.0000E+00  0.0000E+00  0.0000E+00
    -39.923  0.0000E+00  0.0000E+00  0.0000E+00  0.0000E+00  0.0000E+00  0.0000E+00  0.0000E+00  0.0000E+00  0.0000E+00  0.0000E+00  0.0000E+00  0.0000E+00  0.0000E+00  0.0000E+00  0.0000E+00  0.0000E+00  0.0000E+00  0.0000E+00
    -39.727  0.0000E+00  0.0000E+00  0.0000E+00  0.0000E+00  0.0000E+00  0.0000E+00  0.0000E+00  0.0000E+00  0.0000E+00  0.0000E+00  0.0000E+00  0.0000E+00  0.0000E+00  0.0000E+00  0.0000E+00  0.0000E+00  0.0000E+00  0.0000E+00
    -39.530  0.0000E+00  0.0000E+00  0.0000E+00  0.0000E+00  0.0000E+00  0.0000E+00  0.0000E+00  0.0000E+00  0.0000E+00  0.0000E+00  0.0000E+00  0.0000E+00  0.0000E+00  0.0000E+00  0.0000E+00  0.0000E+00  0.0000E+00  0.0000E+00
    -39.333  0.0000E+00  0.0000E+00  0.0000E+00  0.0000E+00  0.0000E+00  0.0000E+00  0.0000E+00  0.0000E+00  0.0000E+00  0.0000E+00  0.0000E+00  0.0000E+00  0.0000E+00  0.0000E+00  0.0000E+00  0.0000E+00  0.0000E+00  0.0000E+00
    -39.137  0.0000E+00  0.0000E+00  0.0000E+00  0.0000E+00  0.0000E+00  0.0000E+00  0.0000E+00  0.0000E+00  0.0000E+00  0.0000E+00  0.0000E+00  0.0000E+00  0.0000E+00  0.0000E+00  0.0000E+00  0.0000E+00  0.0000E+00  0.0000E+00
    -38.940  0.0000E+00  0.0000E+00  0.0000E+00  0.0000E+00  0.0000E+00  0.0000E+00  0.0000E+00  0.0000E+00  0.0000E+00  0.0000E+00  0.0000E+00  0.0000E+00  0.0000E+00  0.0000E+00  0.0000E+00  0.0000E+00  0.0000E+00  0.0000E+00
    -38.744  0.0000E+00  0.0000E+00  0.0000E+00  0.0000E+00  0.0000E+00  0.0000E+00  0.0000E+00  0.0000E+00  0.0000E+00  0.0000E+00  0.0000E+00  0.0000E+00  0.0000E+00  0.0000E+00  0.0000E+00  0.0000E+00  0.0000E+00  0.0000E+00
    -38.547  0.0000E+00  0.0000E+00  0.0000E+00  0.0000E+00  0.0000E+00  0.0000E+00  0.0000E+00  0.0000E+00  0.0000E+00  0.0000E+00  0.0000E+00  0.0000E+00  0.0000E+00  0.0000E+00  0.0000E+00  0.0000E+00  0.0000E+00  0.0000E+00
    -38.350  0.0000E+00  0.0000E+00  0.0000E+00  0.0000E+00  0.0000E+00  0.0000E+00  0.0000E+00  0.0000E+00  0.0000E+00  0.0000E+00  0.0000E+00  0.0000E+00  0.0000E+00  0.0000E+00  0.0000E+00  0.0000E+00  0.0000E+00  0.0000E+00
    -38.154  0.0000E+00  0.0000E+00  0.0000E+00  0.0000E+00  0.0000E+00  0.0000E+00  0.0000E+00  0.0000E+00  0.0000E+00  0.0000E+00  0.0000E+00  0.0000E+00  0.0000E+00  0.0000E+00  0.0000E+00  0.0000E+00  0.0000E+00  0.0000E+00
    -37.957  0.0000E+00  0.0000E+00  0.0000E+00  0.0000E+00  0.0000E+00  0.0000E+00  0.0000E+00  0.0000E+00  0.0000E+00  0.0000E+00  0.0000E+00  0.0000E+00  0.0000E+00  0.0000E+00  0.0000E+00  0.0000E+00  0.0000E+00  0.0000E+00
    -37.760  0.0000E+00  0.0000E+00  0.0000E+00  0.0000E+00  0.0000E+00  0.0000E+00  0.0000E+00  0.0000E+00  0.0000E+00  0.0000E+00  0.0000E+00  0.0000E+00  0.0000E+00  0.0000E+00  0.0000E+00  0.0000E+00  0.0000E+00  0.0000E+00
    -37.564  0.0000E+00  0.0000E+00  0.0000E+00  0.0000E+00  0.0000E+00  0.0000E+00  0.0000E+00  0.0000E+00  0.0000E+00  0.0000E+00  0.0000E+00  0.0000E+00  0.0000E+00  0.0000E+00  0.0000E+00  0.0000E+00  0.0000E+00  0.0000E+00
    -37.367  0.0000E+00  0.0000E+00  0.0000E+00  0.0000E+00  0.0000E+00  0.0000E+00  0.0000E+00  0.0000E+00  0.0000E+00  0.0000E+00  0.0000E+00  0.0000E+00  0.0000E+00  0.0000E+00  0.0000E+00  0.0000E+00  0.0000E+00  0.0000E+00
    -37.171  0.0000E+00  0.0000E+00  0.0000E+00  0.0000E+00  0.0000E+00  0.0000E+00  0.0000E+00  0.0000E+00  0.0000E+00  0.0000E+00  0.0000E+00  0.0000E+00  0.0000E+00  0.0000E+00  0.0000E+00  0.0000E+00  0.0000E+00  0.0000E+00
    -36.974  0.0000E+00  0.0000E+00  0.0000E+00  0.0000E+00  0.0000E+00  0.0000E+00  0.0000E+00  0.0000E+00  0.0000E+00  0.0000E+00  0.0000E+00  0.0000E+00  0.0000E+00  0.0000E+00  0.0000E+00  0.0000E+00  0.0000E+00  0.0000E+00