   2   2   1   0
  0.3193470E+02  0.3618821E-09  0.3618820E-09  0.5631553E-09  0.5000000E-15
  1.000000000000000E-004
  CAR 
 unknown system                          
      7.82220966    -50.50680040  301      2.31668636      1.00000000
    -50.507  0.0000E+00  0.0000E+00  0.0000E+00  0.0000E+00
    -50.312  0.0000E+00  0.0000E+00  0.0000E+00  0.0000E+00
    -50.118  0.0000E+00  0.0000E+00  0.0000E+00  0.0000E+00
    -49.924  0.0000E+00  0.0000E+00  0.0000E+00  0.0000E+00
    -49.729  0.0000E+00  0.0000E+00  0.0000E+00  0.0000E+00
    -49.535  0.0000E+00  0.0000E+00  0.0000E+00  0.0000E+00
    -49.340  0.0000E+00  0.0000E+00  0.0000E+00  0.0000E+00
    -49.146  0.0000E+00  0.0000E+00  0.0000E+00  0.0000E+00
    -48.951  0.0000E+00  0.0000E+00  0.0000E+00  0.0000E+00
    -48.757  0.0000E+00  0.0000E+00  0.0000E+00  0.0000E+00
    -48.563  0.0000E+00  0.0000E+00  0.0000E+00  0.0000E+00
    -48.368  0.2525E-03  0.0000E+00  0.4910E-04  0.0000E+00
    -48.174  0.1207E-01  0.8815E-03  0.2395E-02  0.1714E-03
    -47.979  0.5564E+00  0.4200E-01  0.1106E+00  0.8337E-02
    -47.785  0.7035E+01  0.1700E+01  0.1478E+01  0.3389E+00
    -47.590  0.2608E+01  0.7598E+01  0.1986E+01  0.1816E+01
    -47.396  0.0000E+00  0.9242E+00  0.2000E+01  0.1996E+01
    -47.201  0.0000E+00  0.0000E+00  0.2000E+01  0.2000E+01
    -47.007  0.0000E+00  0.0000E+00  0.2000E+01  0.2000E+01
    -46.813  0.0000E+00  0.0000E+00  0.2000E+01  0.2000E+01
    -46.618  0.0000E+00  0.0000E+00  0.2000E+01  0.2000E+01
    -46.424  0.0000E+00  0.0000E+00  0.2000E+01  0.2000E+01
    -46.229  0.0000E+00  0.0000E+00  0.2000E+01  0.2000E+01
    -46.035  0.0000E+00  0.0000E+00  0.2000E+01  0.2000E+01
    -45.840  0.0000E+00  0.0000E+00  0.2000E+01  0.2000E+01
    -45.646  0.0000E+00  0.0000E+00  0.2000E+01  0.2000E+01
    -45.452  0.0000E+00  0.0000E+00  0.2000E+01  0.2000E+01
    -45.257  0.0000E+00  0.0000E+00  0.2000E+01  0.2000E+01
    -45.063  0.0000E+00  0.0000E+00  0.2000E+01  0.2000E+01
    -44.868  0.0000E+00  0.0000E+00  0.2000E+01  0.2000E+01
    -44.674  0.0000E+00  0.0000E+00  0.2000E+01  0.2000E+01
    -44.479  0.0000E+00  0.0000E+00  0.2000E+01  0.2000E+01
    -44.285  0.0000E+00  0.0000E+00  0.2000E+01  0.2000E+01
    -44.091  0.0000E+00  0.0000E+00  0.2000E+01  0.2000E+01
    -43.896  0.0000E+00  0.0000E+00  0.2000E+01  0.2000E+01
    -43.702  0.0000E+00  0.0000E+00  0.2000E+01  0.2000E+01
    -43.507  0.0000E+00  0.0000E+00  0.2000E+01  0.2000E+01
    -43.313  0.0000E+00  0.0000E+00  0.2000E+01  0.2000E+01
    -43.118  0.0000E+00  0.0000E+00  0.2000E+01  0.2000E+01
    -42.924  0.0000E+00  0.0000E+00  0.2000E+01  0.2000E+01
    -42.730  0.0000E+00  0.0000E+00  0.2000E+01  0.2000E+01
    -42.535  0.0000E+00  0.0000E+00  0.2000E+01  0.2000E+01
    -42.341  0.0000E+00  0.0000E+00  0.2000E+01  0.2000E+01
    -42.146  0.0000E+00  0.0000E+00  0.2000E+01  0.2000E+01
    -41.952  0.0000E+00  0.0000E+00  0.2000E+01  0.2000E+01
    -41.757  0.0000E+00  0.0000E+00  0.2000E+01  0.2000E+01
    -41.563  0.0000E+00  0.0000E+00  0.2000E+01  0.2000E+01
    -41.369  0.0000E+00  0.0000E+00  0.2000E+01  0.2000E+01
    -41.174  0.0000E+00  0.0000E+00  0.2000E+01  0.2000E+01
    -40.980  0.0000E+00  0.0000E+00  0.2000E+01  0.2000E+01
    -40.785  0.0000E+00  0.0000E+00  0.2000E+01  0.2000E+01
    -40.591  0.0000E+00  0.0000E+00  0.2000E+01  0.2000E+01
    -40.396  0.0000E+00  0.0000E+00  0.2000E+01  0.2000E+01
    -40.202  0.0000E+00  0.0000E+00  0.2000E+01  0.2000E+01
    -40.008  0.0000E+00  0.0000E+00  0.2000E+01  0.2000E+01
    -39.813  0.0000E+00  0.0000E+00  0.2000E+01  0.2000E+01
    -39.619  0.0000E+00  0.0000E+00  0.2000E+01  0.2000E+01
    -39.424  0.0000E+00  0.0000E+00  0.2000E+01  0.2000E+01
    -39.230  0.0000E+00  0.0000E+00  0.2000E+01  0.2000E+01
    -39.035  0.0000E+00  0.0000E+00  0.2000E+01  0.2000E+01
    -38.841  0.0000E+00  0.0000E+00  0.2000E+01  0.2000E+01
    -38.647  0.0000E+00  0.0000E+00  0.2000E+01  0.2000E+01
    -38.452  0.0000E+00  0.0000E+00  0.2000E+01  0.2000E+01
    -38.258  0.0000E+00  0.0000E+00  0.2000E+01  0.2000E+01
    -38.063  0.0000E+00  0.0000E+00  0.2000E+01  0.2000E+01
    -37.869  0.0000E+00  0.0000E+00  0.2000E+01  0.2000E+01
    -37.674  0.0000E+00  0.0000E+00  0.2000E+01  0.2000E+01
    -37.480  0.0000E+00  0.0000E+00  0.2000E+01  0.2000E+01
    -37.286  0.0000E+00  0.0000E+00  0.2000E+01  0.2000E+01
    -37.091  0.0000E+00  0.0000E+00  0.2000E+01  0.2000E+01
    -36.897  0.0000E+00  0.0000E+00  0.2000E+01  0.2000E+01
    -36.702  0.0000E+00  0.0000E+00  0.2000E+01  0.2000E+01
    -36.508  0.0000E+00  0.0000E+00  0.2000E+01  0.2000E+01
    -36.313  0.0000E+00  0.0000E+00  0.2000E+01  0.2000E+01
    -36.119  0.0000E+00  0.0000E+00  0.2000E+01  0.2000E+01
    -35.925  0.0000E+00  0.0000E+00  0.2000E+01  0.2000E+01
    -35.730  0.0000E+00  0.0000E+00  0.2000E+01  0.2000E+01
    -35.536  0.0000E+00  0.0000E+00  0.2000E+01  0.2000E+01
    -35.341  0.0000E+00  0.0000E+00  0.2000E+01  0.2000E+01
    -35.147  0.0000E+00  0.0000E+00  0.2000E+01  0.2000E+01
    -34.952  0.0000E+00  0.0000E+00  0.2000E+01  0.2000E+01
    -34.758  0.0000E+00  0.0000E+00  0.2000E+01  0.2000E+01
    -34.564  0.0000E+00  0.0000E+00  0.2000E+01  0.2000E+01
    -34.369  0.0000E+00  0.0000E+00  0.2000E+01  0.2000E+01
    -34.175  0.0000E+00  0.0000E+00  0.2000E+01  0.2000E+01
    -33.980  0.0000E+00  0.0000E+00  0.2000E+01  0.2000E+01
    -33.786  0.0000E+00  0.0000E+00  0.2000E+01  0.2000E+01
    -33.591  0.0000E+00  0.0000E+00  0.2000E+01  0.2000E+01
    -33.397  0.0000E+00  0.0000E+00  0.2000E+01  0.2000E+01
    -33.203  0.0000E+00  0.0000E+00  0.2000E+01  0.2000E+01
    -33.008  0.0000E+00  0.0000E+00  0.2000E+01  0.2000E+01
    -32.814  0.0000E+00  0.0000E+00  0.2000E+01  0.2000E+01
    -32.619  0.0000E+00  0.0000E+00  0.2000E+01  0.2000E+01
    -32.425  0.0000E+00  0.0000E+00  0.2000E+01  0.2000E+01
    -32.230  0.0000E+00  0.0000E+00  0.2000E+01  0.2000E+01
    -32.036  0.0000E+00  0.0000E+00  0.2000E+01  0.2000E+01
    -31.842  0.0000E+00  0.0000E+00  0.2000E+01  0.2000E+01
    -31.647  0.0000E+00  0.0000E+00  0.2000E+01  0.2000E+01
    -31.453  0.0000E+00  0.0000E+00  0.2000E+01  0.2000E+01
    -31.258  0.0000E+00  0.0000E+00  0.2000E+01  0.2000E+01
    -31.064  0.0000E+00  0.0000E+00  0.2000E+01  0.2000E+01
    -30.869  0.0000E+00  0.0000E+00  0.2000E+01  0.2000E+01
    -30.675  0.0000E+00  0.0000E+00  0.2000E+01  0.2000E+01
    -30.481  0.0000E+00  0.0000E+00  0.2000E+01  0.2000E+01
    -30.286  0.0000E+00  0.0000E+00  0.2000E+01  0.2000E+01
    -30.092  0.0000E+00  0.0000E+00  0.2000E+01  0.2000E+01
    -29.897  0.0000E+00  0.0000E+00  0.2000E+01  0.2000E+01
    -29.703  0.0000E+00  0.0000E+00  0.2000E+01  0.2000E+01
    -29.508  0.0000E+00  0.0000E+00  0.2000E+01  0.2000E+01
    -29.314  0.0000E+00  0.0000E+00  0.2000E+01  0.2000E+01
    -29.119  0.0000E+00  0.0000E+00  0.2000E+01  0.2000E+01
    -28.925  0.0000E+00  0.0000E+00  0.2000E+01  0.2000E+01
    -28.731  0.0000E+00  0.0000E+00  0.2000E+01  0.2000E+01
    -28.536  0.0000E+00  0.0000E+00  0.2000E+01  0.2000E+01
    -28.342  0.0000E+00  0.0000E+00  0.2000E+01  0.2000E+01
    -28.147  0.0000E+00  0.0000E+00  0.2000E+01  0.2000E+01
    -27.953  0.0000E+00  0.0000E+00  0.2000E+01  0.2000E+01
    -27.758  0.0000E+00  0.0000E+00  0.2000E+01  0.2000E+01
    -27.564  0.0000E+00  0.0000E+00  0.2000E+01  0.2000E+01
    -27.370  0.0000E+00  0.0000E+00  0.2000E+01  0.2000E+01
    -27.175  0.0000E+00  0.0000E+00  0.2000E+01  0.2000E+01
    -26.981  0.6286E-03  0.8390E-06  0.2000E+01  0.2000E+01
    -26.786  0.3187E-01  0.2278E-02  0.2006E+01  0.2000E+01
    -26.592  0.1427E+01  0.1083E+00  0.2284E+01  0.2022E+01
    -26.397  0.1752E+02  0.4074E+01  0.5691E+01  0.2814E+01
    -26.203  0.1140E+02  0.2134E+02  0.7907E+01  0.6964E+01
    -26.009  0.3348E+00  0.5188E+01  0.7999E+01  0.7972E+01
    -25.814  0.0000E+00  0.0000E+00  0.8000E+01  0.8000E+01
    -25.620  0.0000E+00  0.0000E+00  0.8000E+01  0.8000E+01
    -25.425  0.0000E+00  0.0000E+00  0.8000E+01  0.8000E+01
    -25.231  0.0000E+00  0.0000E+00  0.8000E+01  0.8000E+01
    -25.036  0.0000E+00  0.0000E+00  0.8000E+01  0.8000E+01
    -24.842  0.0000E+00  0.0000E+00  0.8000E+01  0.8000E+01
    -24.648  0.0000E+00  0.0000E+00  0.8000E+01  0.8000E+01
    -24.453  0.0000E+00  0.0000E+00  0.8000E+01  0.8000E+01
    -24.259  0.0000E+00  0.0000E+00  0.8000E+01  0.8000E+01
    -24.064  0.0000E+00  0.0000E+00  0.8000E+01  0.8000E+01
    -23.870  0.0000E+00  0.0000E+00  0.8000E+01  0.8000E+01
    -23.675  0.0000E+00  0.0000E+00  0.8000E+01  0.8000E+01
    -23.481  0.0000E+00  0.0000E+00  0.8000E+01  0.8000E+01
    -23.287  0.0000E+00  0.0000E+00  0.8000E+01  0.8000E+01
    -23.092  0.0000E+00  0.0000E+00  0.8000E+01  0.8000E+01
    -22.898  0.0000E+00  0.0000E+00  0.8000E+01  0.8000E+01
    -22.703  0.0000E+00  0.0000E+00  0.8000E+01  0.8000E+01
    -22.509  0.0000E+00  0.0000E+00  0.8000E+01  0.8000E+01
    -22.314  0.0000E+00  0.0000E+00  0.8000E+01  0.8000E+01
    -22.120  0.0000E+00  0.0000E+00  0.8000E+01  0.8000E+01
    -21.926  0.0000E+00  0.0000E+00  0.8000E+01  0.8000E+01
    -21.731  0.0000E+00  0.0000E+00  0.8000E+01  0.8000E+01
    -21.537  0.0000E+00  0.0000E+00  0.8000E+01  0.8000E+01
    -21.342  0.0000E+00  0.0000E+00  0.8000E+01  0.8000E+01
    -21.148  0.0000E+00  0.0000E+00  0.8000E+01  0.8000E+01
    -20.953  0.0000E+00  0.0000E+00  0.8000E+01  0.8000E+01
    -20.759  0.0000E+00  0.0000E+00  0.8000E+01  0.8000E+01
    -20.565  0.0000E+00  0.0000E+00  0.8000E+01  0.8000E+01
    -20.370  0.0000E+00  0.0000E+00  0.8000E+01  0.8000E+01
    -20.176  0.0000E+00  0.0000E+00  0.8000E+01  0.8000E+01
    -19.981  0.0000E+00  0.0000E+00  0.8000E+01  0.8000E+01
    -19.787  0.0000E+00  0.0000E+00  0.8000E+01  0.8000E+01
    -19.592  0.0000E+00  0.0000E+00  0.8000E+01  0.8000E+01
    -19.398  0.0000E+00  0.0000E+00  0.8000E+01  0.8000E+01
    -19.204  0.0000E+00  0.0000E+00  0.8000E+01  0.8000E+01
    -19.009  0.0000E+00  0.0000E+00  0.8000E+01  0.8000E+01
    -18.815  0.0000E+00  0.0000E+00  0.8000E+01  0.8000E+01
    -18.620  0.0000E+00  0.0000E+00  0.8000E+01  0.8000E+01
    -18.426  0.0000E+00  0.0000E+00  0.8000E+01  0.8000E+01
    -18.231  0.0000E+00  0.0000E+00  0.8000E+01  0.8000E+01
    -18.037  0.0000E+00  0.0000E+00  0.8000E+01  0.8000E+01
    -17.843  0.0000E+00  0.0000E+00  0.8000E+01  0.8000E+01
    -17.648  0.0000E+00  0.0000E+00  0.8000E+01  0.8000E+01
    -17.454  0.0000E+00  0.0000E+00  0.8000E+01  0.8000E+01
    -17.259  0.0000E+00  0.0000E+00  0.8000E+01  0.8000E+01
    -17.065  0.0000E+00  0.0000E+00  0.8000E+01  0.8000E+01
    -16.870  0.0000E+00  0.0000E+00  0.8000E+01  0.8000E+01
    -16.676  0.0000E+00  0.0000E+00  0.8000E+01  0.8000E+01
    -16.482  0.0000E+00  0.0000E+00  0.8000E+01  0.8000E+01
    -16.287  0.0000E+00  0.0000E+00  0.8000E+01  0.8000E+01
    -16.093  0.0000E+00  0.0000E+00  0.8000E+01  0.8000E+01
    -15.898  0.0000E+00  0.0000E+00  0.8000E+01  0.8000E+01
    -15.704  0.0000E+00  0.0000E+00  0.8000E+01  0.8000E+01
    -15.509  0.0000E+00  0.0000E+00  0.8000E+01  0.8000E+01
    -15.315  0.0000E+00  0.0000E+00  0.8000E+01  0.8000E+01
    -15.121  0.0000E+00  0.0000E+00  0.8000E+01  0.8000E+01
    -14.926  0.0000E+00  0.0000E+00  0.8000E+01  0.8000E+01
    -14.732  0.0000E+00  0.0000E+00  0.8000E+01  0.8000E+01
    -14.537  0.0000E+00  0.0000E+00  0.8000E+01  0.8000E+01
    -14.343  0.0000E+00  0.0000E+00  0.8000E+01  0.8000E+01
    -14.148  0.0000E+00  0.0000E+00  0.8000E+01  0.8000E+01
    -13.954  0.0000E+00  0.0000E+00  0.8000E+01  0.8000E+01
    -13.760  0.0000E+00  0.0000E+00  0.8000E+01  0.8000E+01
    -13.565  0.0000E+00  0.0000E+00  0.8000E+01  0.8000E+01
    -13.371  0.0000E+00  0.0000E+00  0.8000E+01  0.8000E+01
    -13.176  0.0000E+00  0.0000E+00  0.8000E+01  0.8000E+01
    -12.982  0.0000E+00  0.0000E+00  0.8000E+01  0.8000E+01
    -12.787  0.0000E+00  0.0000E+00  0.8000E+01  0.8000E+01
    -12.593  0.0000E+00  0.0000E+00  0.8000E+01  0.8000E+01
    -12.399  0.0000E+00  0.0000E+00  0.8000E+01  0.8000E+01
    -12.204  0.0000E+00  0.0000E+00  0.8000E+01  0.8000E+01
    -12.010  0.0000E+00  0.0000E+00  0.8000E+01  0.8000E+01
    -11.815  0.0000E+00  0.0000E+00  0.8000E+01  0.8000E+01
    -11.621  0.0000E+00  0.0000E+00  0.8000E+01  0.8000E+01
    -11.426  0.0000E+00  0.0000E+00  0.8000E+01  0.8000E+01
    -11.232  0.0000E+00  0.0000E+00  0.8000E+01  0.8000E+01
    -11.038  0.0000E+00  0.0000E+00  0.8000E+01  0.8000E+01
    -10.843  0.0000E+00  0.0000E+00  0.8000E+01  0.8000E+01
    -10.649  0.0000E+00  0.0000E+00  0.8000E+01  0.8000E+01
    -10.454  0.0000E+00  0.0000E+00  0.8000E+01  0.8000E+01
    -10.260  0.0000E+00  0.0000E+00  0.8000E+01  0.8000E+01
    -10.065  0.0000E+00  0.0000E+00  0.8000E+01  0.8000E+01
     -9.871  0.0000E+00  0.0000E+00  0.8000E+01  0.8000E+01
     -9.676  0.0000E+00  0.0000E+00  0.8000E+01  0.8000E+01
     -9.482  0.0000E+00  0.0000E+00  0.8000E+01  0.8000E+01
     -9.288  0.0000E+00  0.0000E+00  0.8000E+01  0.8000E+01
     -9.093  0.0000E+00  0.0000E+00  0.8000E+01  0.8000E+01
     -8.899  0.0000E+00  0.0000E+00  0.8000E+01  0.8000E+01
     -8.704  0.0000E+00  0.0000E+00  0.8000E+01  0.8000E+01
     -8.510  0.0000E+00  0.0000E+00  0.8000E+01  0.8000E+01
     -8.315  0.0000E+00  0.0000E+00  0.8000E+01  0.8000E+01
     -8.121  0.0000E+00  0.0000E+00  0.8000E+01  0.8000E+01
     -7.927  0.0000E+00  0.0000E+00  0.8000E+01  0.8000E+01
     -7.732  0.0000E+00  0.0000E+00  0.8000E+01  0.8000E+01
     -7.538  0.0000E+00  0.0000E+00  0.8000E+01  0.8000E+01
     -7.343  0.0000E+00  0.0000E+00  0.8000E+01  0.8000E+01
     -7.149  0.0000E+00  0.0000E+00  0.8000E+01  0.8000E+01
     -6.954  0.0000E+00  0.0000E+00  0.8000E+01  0.8000E+01
     -6.760  0.0000E+00  0.0000E+00  0.8000E+01  0.8000E+01
     -6.566  0.0000E+00  0.0000E+00  0.8000E+01  0.8000E+01
     -6.371  0.0000E+00  0.0000E+00  0.8000E+01  0.8000E+01
     -6.177  0.0000E+00  0.0000E+00  0.8000E+01  0.8000E+01
     -5.982  0.0000E+00  0.0000E+00  0.8000E+01  0.8000E+01
     -5.788  0.0000E+00  0.0000E+00  0.8000E+01  0.8000E+01
     -5.593  0.0000E+00  0.0000E+00  0.8000E+01  0.8000E+01
     -5.399  0.0000E+00  0.0000E+00  0.8000E+01  0.8000E+01
     -5.205  0.0000E+00  0.0000E+00  0.8000E+01  0.8000E+01
     -5.010  0.0000E+00  0.0000E+00  0.8000E+01  0.8000E+01
     -4.816  0.0000E+00  0.0000E+00  0.8000E+01  0.8000E+01
     -4.621  0.0000E+00  0.0000E+00  0.8000E+01  0.8000E+01
     -4.427  0.0000E+00  0.0000E+00  0.8000E+01  0.8000E+01
     -4.232  0.0000E+00  0.0000E+00  0.8000E+01  0.8000E+01
     -4.038  0.0000E+00  0.0000E+00  0.8000E+01  0.8000E+01
     -3.844  0.0000E+00  0.0000E+00  0.8000E+01  0.8000E+01
     -3.649  0.0000E+00  0.0000E+00  0.8000E+01  0.8000E+01
     -3.455  0.0000E+00  0.0000E+00  0.8000E+01  0.8000E+01
     -3.260  0.0000E+00  0.0000E+00  0.8000E+01  0.8000E+01
     -3.066  0.0000E+00  0.0000E+00  0.8000E+01  0.8000E+01
     -2.871  0.6248E-06  0.0000E+00  0.8000E+01  0.8000E+01
     -2.677  0.3552E-04  0.8539E-07  0.8000E+01  0.8000E+01
     -2.483  0.1609E-02  0.1113E-04  0.8000E+01  0.8000E+01
     -2.288  0.2834E-01  0.5303E-03  0.8006E+01  0.8000E+01
     -2.094  0.7535E-01  0.1451E-01  0.8020E+01  0.8003E+01
     -1.899  0.1252E+00  0.6343E-01  0.8045E+01  0.8015E+01
     -1.705  0.1393E+00  0.1171E+00  0.8072E+01  0.8038E+01
     -1.510  0.1793E+00  0.1214E+00  0.8107E+01  0.8062E+01
     -1.316  0.1899E+00  0.1781E+00  0.8144E+01  0.8096E+01
     -1.122  0.2292E+00  0.1969E+00  0.8189E+01  0.8135E+01
     -0.927  0.2715E+00  0.1881E+00  0.8241E+01  0.8171E+01
     -0.733  0.2341E+00  0.2855E+00  0.8287E+01  0.8227E+01
     -0.538  0.3359E+00  0.2310E+00  0.8353E+01  0.8272E+01
     -0.344  0.3325E+00  0.3070E+00  0.8418E+01  0.8332E+01
     -0.149  0.3772E+00  0.3350E+00  0.8491E+01  0.8397E+01
      0.045  0.3698E+00  0.3733E+00  0.8564E+01  0.8470E+01
      0.239  0.4922E+00  0.3635E+00  0.8659E+01  0.8541E+01
      0.434  0.5446E+00  0.4412E+00  0.8766E+01  0.8627E+01
      0.628  0.5269E+00  0.5741E+00  0.8869E+01  0.8739E+01
      0.823  0.8388E+00  0.4991E+00  0.9032E+01  0.8836E+01
      1.017  0.7341E+00  0.7361E+00  0.9175E+01  0.8980E+01
      1.212  0.8522E+00  0.8686E+00  0.9342E+01  0.9149E+01
      1.406  0.9126E+00  0.8982E+00  0.9520E+01  0.9324E+01
      1.600  0.1077E+01  0.1016E+01  0.9730E+01  0.9522E+01
      1.795  0.1236E+01  0.1113E+01  0.9971E+01  0.9739E+01
      1.989  0.2392E+01  0.1091E+01  0.1044E+02  0.9952E+01
      2.184  0.2975E+01  0.1902E+01  0.1102E+02  0.1032E+02
      2.378  0.2164E+01  0.2608E+01  0.1144E+02  0.1083E+02
      2.573  0.1306E+01  0.2625E+01  0.1170E+02  0.1134E+02
      2.767  0.1118E+01  0.1688E+01  0.1192E+02  0.1167E+02
      2.961  0.1626E+01  0.1255E+01  0.1223E+02  0.1192E+02
      3.156  0.3107E+01  0.1858E+01  0.1284E+02  0.1228E+02
      3.350  0.3324E+01  0.3372E+01  0.1348E+02  0.1294E+02
      3.545  0.3281E+01  0.3378E+01  0.1413E+02  0.1360E+02
      3.739  0.3155E+01  0.3445E+01  0.1474E+02  0.1427E+02
      3.934  0.1988E+01  0.3004E+01  0.1513E+02  0.1486E+02
      4.128  0.1206E+01  0.1729E+01  0.1537E+02  0.1519E+02
      4.322  0.9881E+00  0.1150E+01  0.1556E+02  0.1542E+02
      4.517  0.8742E+00  0.9211E+00  0.1573E+02  0.1560E+02
      4.711  0.6492E+00  0.8179E+00  0.1586E+02  0.1576E+02
      4.906  0.5485E+00  0.6458E+00  0.1597E+02  0.1589E+02
      5.100  0.1572E+00  0.4553E+00  0.1600E+02  0.1598E+02
      5.295  0.6816E-02  0.1150E+00  0.1600E+02  0.1600E+02
      5.489  0.0000E+00  0.4943E-02  0.1600E+02  0.1600E+02
      5.683  0.0000E+00  0.0000E+00  0.1600E+02  0.1600E+02
      5.878  0.0000E+00  0.0000E+00  0.1600E+02  0.1600E+02
      6.072  0.0000E+00  0.0000E+00  0.1600E+02  0.1600E+02
      6.267  0.0000E+00  0.0000E+00  0.1600E+02  0.1600E+02
      6.461  0.0000E+00  0.0000E+00  0.1600E+02  0.1600E+02
      6.656  0.0000E+00  0.0000E+00  0.1600E+02  0.1600E+02
      6.850  0.0000E+00  0.0000E+00  0.1600E+02  0.1600E+02
      7.044  0.0000E+00  0.0000E+00  0.1600E+02  0.1600E+02
      7.239  0.0000E+00  0.0000E+00  0.1600E+02  0.1600E+02
      7.433  0.0000E+00  0.0000E+00  0.1600E+02  0.1600E+02
      7.628  0.0000E+00  0.0000E+00  0.1600E+02  0.1600E+02
      7.822  0.0000E+00  0.0000E+00  0.1600E+02  0.1600E+02
      7.82220966    -50.50680040  301      2.31668636      1.00000000
    -50.507  0.0000E+00  0.0000E+00  0.0000E+00  0.0000E+00  0.0000E+00  0.0000E+00  0.0000E+00  0.0000E+00  0.0000E+00  0.0000E+00  0.0000E+00  0.0000E+00  0.0000E+00  0.0000E+00  0.0000E+00  0.0000E+00  0.0000E+00  0.0000E+00
    -50.312  0.0000E+00  0.0000E+00  0.0000E+00  0.0000E+00  0.0000E+00  0.0000E+00  0.0000E+00  0.0000E+00  0.0000E+00  0.0000E+00  0.0000E+00  0.0000E+00  0.0000E+00  0.0000E+00  0.0000E+00  0.0000E+00  0.0000E+00  0.0000E+00
    -50.118  0.0000E+00  0.0000E+00  0.0000E+00  0.0000E+00  0.0000E+00  0.0000E+00  0.0000E+00  0.0000E+00  0.0000E+00  0.0000E+00  0.0000E+00  0.0000E+00  0.0000E+00  0.0000E+00  0.0000E+00  0.0000E+00  0.0000E+00  0.0000E+00
    -49.924  0.0000E+00  0.0000E+00  0.0000E+00  0.0000E+00  0.0000E+00  0.0000E+00  0.0000E+00  0.0000E+00  0.0000E+00  0.0000E+00  0.0000E+00  0.0000E+00  0.0000E+00  0.0000E+00  0.0000E+00  0.0000E+00  0.0000E+00  0.0000E+00
    -49.729  0.0000E+00  0.0000E+00  0.0000E+00  0.0000E+00  0.0000E+00  0.0000E+00  0.0000E+00  0.0000E+00  0.0000E+00  0.0000E+00  0.0000E+00  0.0000E+00  0.0000E+00  0.0000E+00  0.0000E+00  0.0000E+00  0.0000E+00  0.0000E+00
    -49.535  0.0000E+00  0.0000E+00  0.0000E+00  0.0000E+00  0.0000E+00  0.0000E+00  0.0000E+00  0.0000E+00  0.0000E+00  0.0000E+00  0.0000E+00  0.0000E+00  0.0000E+00  0.0000E+00  0.0000E+00  0.0000E+00  0.0000E+00  0.0000E+00
    -49.340  0.0000E+00  0.0000E+00  0.0000E+00  0.0000E+00  0.0000E+00  0.0000E+00  0.0000E+00  0.0000E+00  0.0000E+00  0.0000E+00  0.0000E+00  0.0000E+00  0.0000E+00  0.0000E+00  0.0000E+00  0.0000E+00  0.0000E+00  0.0000E+00
    -49.146  0.0000E+00  0.0000E+00  0.0000E+00  0.0000E+00  0.0000E+00  0.0000E+00  0.0000E+00  0.0000E+00  0.0000E+00  0.0000E+00  0.0000E+00  0.0000E+00  0.0000E+00  0.0000E+00  0.0000E+00  0.0000E+00  0.0000E+00  0.0000E+00
    -48.951  0.0000E+00  0.0000E+00  0.0000E+00  0.0000E+00  0.0000E+00  0.0000E+00  0.0000E+00  0.0000E+00  0.0000E+00  0.0000E+00  0.0000E+00  0.0000E+00  0.0000E+00  0.0000E+00  0.0000E+00  0.0000E+00  0.0000E+00  0.0000E+00
    -48.757  0.0000E+00  0.0000E+00  0.0000E+00  0.0000E+00  0.0000E+00  0.0000E+00  0.0000E+00  0.0000E+00  0.0000E+00  0.0000E+00  0.0000E+00  0.0000E+00  0.0000E+00  0.0000E+00  0.0000E+00  0.0000E+00  0.0000E+00  0.0000E+00
    -48.563  0.0000E+00  0.0000E+00  0.0000E+00  0.0000E+00  0.0000E+00  0.0000E+00  0.0000E+00  0.0000E+00  0.0000E+00  0.0000E+00  0.0000E+00  0.0000E+00  0.0000E+00  0.0000E+00  0.0000E+00  0.0000E+00  0.0000E+00  0.0000E+00
    -48.368  0.1258E-03  0.0000E+00  0.1787E-10  0.0000E+00  0.2901E-10  0.0000E+00  0.1787E-10  0.0000E+00  0.4744E-11  0.0000E+00  0.7711E-11  0.0000E+00  0.1165E-10  0.0000E+00  0.7711E-11  0.0000E+00  0.4744E-11  0.0000E+00
    -48.174  0.6011E-02  0.4392E-03  0.8536E-09  0.6105E-10  0.1386E-08  0.9978E-10  0.8536E-09  0.6105E-10  0.2267E-09  0.1646E-10  0.3685E-09  0.2698E-10  0.5569E-09  0.5782E-10  0.3685E-09  0.2698E-10  0.2267E-09  0.1646E-10
    -47.979  0.2772E+00  0.2092E-01  0.3921E-07  0.2907E-08  0.6375E-07  0.4753E-08  0.3921E-07  0.2907E-08  0.1045E-07  0.7843E-09  0.1702E-07  0.1286E-08  0.2570E-07  0.2754E-08  0.1702E-07  0.1286E-08  0.1045E-07  0.7843E-09
    -47.785  0.3505E+01  0.8470E+00  0.4721E-06  0.1164E-06  0.7781E-06  0.1909E-06  0.4721E-06  0.1164E-06  0.1318E-06  0.3175E-07  0.2199E-06  0.5235E-07  0.3282E-06  0.1110E-06  0.2199E-06  0.5235E-07  0.1318E-06  0.3175E-07
    -47.590  0.1300E+01  0.3785E+01  0.1644E-06  0.4902E-06  0.2756E-06  0.8173E-06  0.1644E-06  0.4902E-06  0.4846E-07  0.1412E-06  0.8322E-07  0.2398E-06  0.1229E-06  0.4831E-06  0.8322E-07  0.2398E-06  0.4846E-07  0.1412E-06
    -47.396  0.0000E+00  0.4604E+00  0.0000E+00  0.5646E-07  0.0000E+00  0.9549E-07  0.0000E+00  0.5646E-07  0.0000E+00  0.1702E-07  0.0000E+00  0.2967E-07  0.0000E+00  0.5734E-07  0.0000E+00  0.2967E-07  0.0000E+00  0.1702E-07
    -47.201  0.0000E+00  0.0000E+00  0.0000E+00  0.0000E+00  0.0000E+00  0.0000E+00  0.0000E+00  0.0000E+00  0.0000E+00  0.0000E+00  0.0000E+00  0.0000E+00  0.0000E+00  0.0000E+00  0.0000E+00  0.0000E+00  0.0000E+00  0.0000E+00
    -47.007  0.0000E+00  0.0000E+00  0.0000E+00  0.0000E+00  0.0000E+00  0.0000E+00  0.0000E+00  0.0000E+00  0.0000E+00  0.0000E+00  0.0000E+00  0.0000E+00  0.0000E+00  0.0000E+00  0.0000E+00  0.0000E+00  0.0000E+00  0.0000E+00
    -46.813  0.0000E+00  0.0000E+00  0.0000E+00  0.0000E+00  0.0000E+00  0.0000E+00  0.0000E+00  0.0000E+00  0.0000E+00  0.0000E+00  0.0000E+00  0.0000E+00  0.0000E+00  0.0000E+00  0.0000E+00  0.0000E+00  0.0000E+00  0.0000E+00
    -46.618  0.0000E+00  0.0000E+00  0.0000E+00  0.0000E+00  0.0000E+00  0.0000E+00  0.0000E+00  0.0000E+00  0.0000E+00  0.0000E+00  0.0000E+00  0.0000E+00  0.0000E+00  0.0000E+00  0.0000E+00  0.0000E+00  0.0000E+00  0.0000E+00
    -46.424  0.0000E+00  0.0000E+00  0.0000E+00  0.0000E+00  0.0000E+00  0.0000E+00  0.0000E+00  0.0000E+00  0.0000E+00  0.0000E+00  0.0000E+00  0.0000E+00  0.0000E+00  0.0000E+00  0.0000E+00  0.0000E+00  0.0000E+00  0.0000E+00
    -46.229  0.0000E+00  0.0000E+00  0.0000E+00  0.0000E+00  0.0000E+00  0.0000E+00  0.0000E+00  0.0000E+00  0.0000E+00  0.0000E+00  0.0000E+00  0.0000E+00  0.0000E+00  0.0000E+00  0.0000E+00  0.0000E+00  0.0000E+00  0.0000E+00
    -46.035  0.0000E+00  0.0000E+00  0.0000E+00  0.0000E+00  0.0000E+00  0.0000E+00  0.0000E+00  0.0000E+00  0.0000E+00  0.0000E+00  0.0000E+00  0.0000E+00  0.0000E+00  0.0000E+00  0.0000E+00  0.0000E+00  0.0000E+00  0.0000E+00
    -45.840  0.0000E+00  0.0000E+00  0.0000E+00  0.0000E+00  0.0000E+00  0.0000E+00  0.0000E+00  0.0000E+00  0.0000E+00  0.0000E+00  0.0000E+00  0.0000E+00  0.0000E+00  0.0000E+00  0.0000E+00  0.0000E+00  0.0000E+00  0.0000E+00
    -45.646  0.0000E+00  0.0000E+00  0.0000E+00  0.0000E+00  0.0000E+00  0.0000E+00  0.0000E+00  0.0000E+00  0.0000E+00  0.0000E+00  0.0000E+00  0.0000E+00  0.0000E+00  0.0000E+00  0.0000E+00  0.0000E+00  0.0000E+00  0.0000E+00
    -45.452  0.0000E+00  0.0000E+00  0.0000E+00  0.0000E+00  0.0000E+00  0.0000E+00  0.0000E+00  0.0000E+00  0.0000E+00  0.0000E+00  0.0000E+00  0.0000E+00  0.0000E+00  0.0000E+00  0.0000E+00  0.0000E+00  0.0000E+00  0.0000E+00
    -45.257  0.0000E+00  0.0000E+00  0.0000E+00  0.0000E+00  0.0000E+00  0.0000E+00  0.0000E+00  0.0000E+00  0.0000E+00  0.0000E+00  0.0000E+00  0.0000E+00  0.0000E+00  0.0000E+00  0.0000E+00  0.0000E+00  0.0000E+00  0.0000E+00
    -45.063  0.0000E+00  0.0000E+00  0.0000E+00  0.0000E+00  0.0000E+00  0.0000E+00  0.0000E+00  0.0000E+00  0.0000E+00  0.0000E+00  0.0000E+00  0.0000E+00  0.0000E+00  0.0000E+00  0.0000E+00  0.0000E+00  0.0000E+00  0.0000E+00
    -44.868  0.0000E+00  0.0000E+00  0.0000E+00  0.0000E+00  0.0000E+00  0.0000E+00  0.0000E+00  0.0000E+00  0.0000E+00  0.0000E+00  0.0000E+00  0.0000E+00  0.0000E+00  0.0000E+00  0.0000E+00  0.0000E+00  0.0000E+00  0.0000E+00
    -44.674  0.0000E+00  0.0000E+00  0.0000E+00  0.0000E+00  0.0000E+00  0.0000E+00  0.0000E+00  0.0000E+00  0.0000E+00  0.0000E+00  0.0000E+00  0.0000E+00  0.0000E+00  0.0000E+00  0.0000E+00  0.0000E+00  0.0000E+00  0.0000E+00
    -44.479  0.0000E+00  0.0000E+00  0.0000E+00  0.0000E+00  0.0000E+00  0.0000E+00  0.0000E+00  0.0000E+00  0.0000E+00  0.0000E+00  0.0000E+00  0.0000E+00  0.0000E+00  0.0000E+00  0.0000E+00  0.0000E+00  0.0000E+00  0.0000E+00
    -44.285  0.0000E+00  0.0000E+00  0.0000E+00  0.0000E+00  0.0000E+00  0.0000E+00  0.0000E+00  0.0000E+00  0.0000E+00  0.0000E+00  0.0000E+00  0.0000E+00  0.0000E+00  0.0000E+00  0.0000E+00  0.0000E+00  0.0000E+00  0.0000E+00
    -44.091  0.0000E+00  0.0000E+00  0.0000E+00  0.0000E+00  0.0000E+00  0.0000E+00  0.0000E+00  0.0000E+00  0.0000E+00  0.0000E+00  0.0000E+00  0.0000E+00  0.0000E+00  0.0000E+00  0.0000E+00  0.0000E+00  0.0000E+00  0.0000E+00
    -43.896  0.0000E+00  0.0000E+00  0.0000E+00  0.0000E+00  0.0000E+00  0.0000E+00  0.0000E+00  0.0000E+00  0.0000E+00  0.0000E+00  0.0000E+00  0.0000E+00  0.0000E+00  0.0000E+00  0.0000E+00  0.0000E+00  0.0000E+00  0.0000E+00
    -43.702  0.0000E+00  0.0000E+00  0.0000E+00  0.0000E+00  0.0000E+00  0.0000E+00  0.0000E+00  0.0000E+00  0.0000E+00  0.0000E+00  0.0000E+00  0.0000E+00  0.0000E+00  0.0000E+00  0.0000E+00  0.0000E+00  0.0000E+00  0.0000E+00
    -43.507  0.0000E+00  0.0000E+00  0.0000E+00  0.0000E+00  0.0000E+00  0.0000E+00  0.0000E+00  0.0000E+00  0.0000E+00  0.0000E+00  0.0000E+00  0.0000E+00  0.0000E+00  0.0000E+00  0.0000E+00  0.0000E+00  0.0000E+00  0.0000E+00
    -43.313  0.0000E+00  0.0000E+00  0.0000E+00  0.0000E+00  0.0000E+00  0.0000E+00  0.0000E+00  0.0000E+00  0.0000E+00  0.0000E+00  0.0000E+00  0.0000E+00  0.0000E+00  0.0000E+00  0.0000E+00  0.0000E+00  0.0000E+00  0.0000E+00
    -43.118  0.0000E+00  0.0000E+00  0.0000E+00  0.0000E+00  0.0000E+00  0.0000E+00  0.0000E+00  0.0000E+00  0.0000E+00  0.0000E+00  0.0000E+00  0.0000E+00  0.0000E+00  0.0000E+00  0.0000E+00  0.0000E+00  0.0000E+00  0.0000E+00
    -42.924  0.0000E+00  0.0000E+00  0.0000E+00  0.0000E+00  0.0000E+00  0.0000E+00  0.0000E+00  0.0000E+00  0.0000E+00  0.0000E+00  0.0000E+00  0.0000E+00  0.0000E+00  0.0000E+00  0.0000E+00  0.0000E+00  0.0000E+00  0.0000E+00
    -42.730  0.0000E+00  0.0000E+00  0.0000E+00  0.0000E+00  0.0000E+00  0.0000E+00  0.0000E+00  0.0000E+00  0.0000E+00  0.0000E+00  0.0000E+00  0.0000E+00  0.0000E+00  0.0000E+00  0.0000E+00  0.0000E+00  0.0000E+00  0.0000E+00
    -42.535  0.0000E+00  0.0000E+00  0.0000E+00  0.0000E+00  0.0000E+00  0.0000E+00  0.0000E+00  0.0000E+00  0.0000E+00  0.0000E+00  0.0000E+00  0.0000E+00  0.0000E+00  0.0000E+00  0.0000E+00  0.0000E+00  0.0000E+00  0.0000E+00
    -42.341  0.0000E+00  0.0000E+00  0.0000E+00  0.0000E+00  0.0000E+00  0.0000E+00  0.0000E+00  0.0000E+00  0.0000E+00  0.0000E+00  0.0000E+00  0.0000E+00  0.0000E+00  0.0000E+00  0.0000E+00  0.0000E+00  0.0000E+00  0.0000E+00
    -42.146  0.0000E+00  0.0000E+00  0.0000E+00  0.0000E+00  0.0000E+00  0.0000E+00  0.0000E+00  0.0000E+00  0.0000E+00  0.0000E+00  0.0000E+00  0.0000E+00  0.0000E+00  0.0000E+00  0.0000E+00  0.0000E+00  0.0000E+00  0.0000E+00
    -41.952  0.0000E+00  0.0000E+00  0.0000E+00  0.0000E+00  0.0000E+00  0.0000E+00  0.0000E+00  0.0000E+00  0.0000E+00  0.0000E+00  0.0000E+00  0.0000E+00  0.0000E+00  0.0000E+00  0.0000E+00  0.0000E+00  0.0000E+00  0.0000E+00
    -41.757  0.0000E+00  0.0000E+00  0.0000E+00  0.0000E+00  0.0000E+00  0.0000E+00  0.0000E+00  0.0000E+00  0.0000E+00  0.0000E+00  0.0000E+00  0.0000E+00  0.0000E+00  0.0000E+00  0.0000E+00  0.0000E+00  0.0000E+00  0.0000E+00
    -41.563  0.0000E+00  0.0000E+00  0.0000E+00  0.0000E+00  0.0000E+00  0.0000E+00  0.0000E+00  0.0000E+00  0.0000E+00  0.0000E+00  0.0000E+00  0.0000E+00  0.0000E+00  0.0000E+00  0.0000E+00  0.0000E+00  0.0000E+00  0.0000E+00
    -41.369  0.0000E+00  0.0000E+00  0.0000E+00  0.0000E+00  0.0000E+00  0.0000E+00  0.0000E+00  0.0000E+00  0.0000E+00  0.0000E+00  0.0000E+00  0.0000E+00  0.0000E+00  0.0000E+00  0.0000E+00  0.0000E+00  0.0000E+00  0.0000E+00
    -41.174  0.0000E+00  0.0000E+00  0.0000E+00  0.0000E+00  0.0000E+00  0.0000E+00  0.0000E+00  0.0000E+00  0.0000E+00  0.0000E+00  0.0000E+00  0.0000E+00  0.0000E+00  0.0000E+00  0.0000E+00  0.0000E+00  0.0000E+00  0.0000E+00
    -40.980  0.0000E+00  0.0000E+00  0.0000E+00  0.0000E+00  0.0000E+00  0.0000E+00  0.0000E+00  0.0000E+00  0.0000E+00  0.0000E+00  0.0000E+00  0.0000E+00  0.0000E+00  0.0000E+00  0.0000E+00  0.0000E+00  0.0000E+00  0.0000E+00
    -40.785  0.0000E+00  0.0000E+00  0.0000E+00  0.0000E+00  0.0000E+00  0.0000E+00  0.0000E+00  0.0000E+00  0.0000E+00  0.0000E+00  0.0000E+00  0.0000E+00  0.0000E+00  0.0000E+00  0.0000E+00  0.0000E+00  0.0000E+00  0.0000E+00