   2   2   1   0
  0.2936980E+02  0.3519220E-09  0.3519220E-09  0.5476556E-09  0.5000000E-15
  1.000000000000000E-004
  CAR 
 unknown system                          
      8.52005528    -49.87391697  301      2.72414692      1.00000000
    -49.874  0.0000E+00  0.0000E+00  0.0000E+00  0.0000E+00
    -49.679  0.0000E+00  0.0000E+00  0.0000E+00  0.0000E+00
    -49.485  0.0000E+00  0.0000E+00  0.0000E+00  0.0000E+00
    -49.290  0.0000E+00  0.0000E+00  0.0000E+00  0.0000E+00
    -49.095  0.0000E+00  0.0000E+00  0.0000E+00  0.0000E+00
    -48.901  0.0000E+00  0.0000E+00  0.0000E+00  0.0000E+00
    -48.706  0.0000E+00  0.0000E+00  0.0000E+00  0.0000E+00
    -48.511  0.0000E+00  0.0000E+00  0.0000E+00  0.0000E+00
    -48.317  0.0000E+00  0.0000E+00  0.0000E+00  0.0000E+00
    -48.122  0.0000E+00  0.0000E+00  0.0000E+00  0.0000E+00
    -47.927  0.0000E+00  0.0000E+00  0.0000E+00  0.0000E+00
    -47.733  0.2107E-03  0.0000E+00  0.4101E-04  0.0000E+00
    -47.538  0.1011E-01  0.9189E-03  0.2010E-02  0.1789E-03
    -47.344  0.4721E+00  0.4396E-01  0.9391E-01  0.8735E-02
    -47.149  0.6748E+01  0.1767E+01  0.1407E+01  0.3527E+00
    -46.954  0.2957E+01  0.7555E+01  0.1983E+01  0.1823E+01
    -46.760  0.0000E+00  0.8880E+00  0.2000E+01  0.1996E+01
    -46.565  0.0000E+00  0.0000E+00  0.2000E+01  0.2000E+01
    -46.370  0.0000E+00  0.0000E+00  0.2000E+01  0.2000E+01
    -46.176  0.0000E+00  0.0000E+00  0.2000E+01  0.2000E+01
    -45.981  0.0000E+00  0.0000E+00  0.2000E+01  0.2000E+01
    -45.786  0.0000E+00  0.0000E+00  0.2000E+01  0.2000E+01
    -45.592  0.0000E+00  0.0000E+00  0.2000E+01  0.2000E+01
    -45.397  0.0000E+00  0.0000E+00  0.2000E+01  0.2000E+01
    -45.202  0.0000E+00  0.0000E+00  0.2000E+01  0.2000E+01
    -45.008  0.0000E+00  0.0000E+00  0.2000E+01  0.2000E+01
    -44.813  0.0000E+00  0.0000E+00  0.2000E+01  0.2000E+01
    -44.618  0.0000E+00  0.0000E+00  0.2000E+01  0.2000E+01
    -44.424  0.0000E+00  0.0000E+00  0.2000E+01  0.2000E+01
    -44.229  0.0000E+00  0.0000E+00  0.2000E+01  0.2000E+01
    -44.035  0.0000E+00  0.0000E+00  0.2000E+01  0.2000E+01
    -43.840  0.0000E+00  0.0000E+00  0.2000E+01  0.2000E+01
    -43.645  0.0000E+00  0.0000E+00  0.2000E+01  0.2000E+01
    -43.451  0.0000E+00  0.0000E+00  0.2000E+01  0.2000E+01
    -43.256  0.0000E+00  0.0000E+00  0.2000E+01  0.2000E+01
    -43.061  0.0000E+00  0.0000E+00  0.2000E+01  0.2000E+01
    -42.867  0.0000E+00  0.0000E+00  0.2000E+01  0.2000E+01
    -42.672  0.0000E+00  0.0000E+00  0.2000E+01  0.2000E+01
    -42.477  0.0000E+00  0.0000E+00  0.2000E+01  0.2000E+01
    -42.283  0.0000E+00  0.0000E+00  0.2000E+01  0.2000E+01
    -42.088  0.0000E+00  0.0000E+00  0.2000E+01  0.2000E+01
    -41.893  0.0000E+00  0.0000E+00  0.2000E+01  0.2000E+01
    -41.699  0.0000E+00  0.0000E+00  0.2000E+01  0.2000E+01
    -41.504  0.0000E+00  0.0000E+00  0.2000E+01  0.2000E+01
    -41.309  0.0000E+00  0.0000E+00  0.2000E+01  0.2000E+01
    -41.115  0.0000E+00  0.0000E+00  0.2000E+01  0.2000E+01
    -40.920  0.0000E+00  0.0000E+00  0.2000E+01  0.2000E+01
    -40.726  0.0000E+00  0.0000E+00  0.2000E+01  0.2000E+01
    -40.531  0.0000E+00  0.0000E+00  0.2000E+01  0.2000E+01
    -40.336  0.0000E+00  0.0000E+00  0.2000E+01  0.2000E+01
    -40.142  0.0000E+00  0.0000E+00  0.2000E+01  0.2000E+01
    -39.947  0.0000E+00  0.0000E+00  0.2000E+01  0.2000E+01
    -39.752  0.0000E+00  0.0000E+00  0.2000E+01  0.2000E+01
    -39.558  0.0000E+00  0.0000E+00  0.2000E+01  0.2000E+01
    -39.363  0.0000E+00  0.0000E+00  0.2000E+01  0.2000E+01
    -39.168  0.0000E+00  0.0000E+00  0.2000E+01  0.2000E+01
    -38.974  0.0000E+00  0.0000E+00  0.2000E+01  0.2000E+01
    -38.779  0.0000E+00  0.0000E+00  0.2000E+01  0.2000E+01
    -38.584  0.0000E+00  0.0000E+00  0.2000E+01  0.2000E+01
    -38.390  0.0000E+00  0.0000E+00  0.2000E+01  0.2000E+01
    -38.195  0.0000E+00  0.0000E+00  0.2000E+01  0.2000E+01
    -38.000  0.0000E+00  0.0000E+00  0.2000E+01  0.2000E+01
    -37.806  0.0000E+00  0.0000E+00  0.2000E+01  0.2000E+01
    -37.611  0.0000E+00  0.0000E+00  0.2000E+01  0.2000E+01
    -37.417  0.0000E+00  0.0000E+00  0.2000E+01  0.2000E+01
    -37.222  0.0000E+00  0.0000E+00  0.2000E+01  0.2000E+01
    -37.027  0.0000E+00  0.0000E+00  0.2000E+01  0.2000E+01
    -36.833  0.0000E+00  0.0000E+00  0.2000E+01  0.2000E+01
    -36.638  0.0000E+00  0.0000E+00  0.2000E+01  0.2000E+01
    -36.443  0.0000E+00  0.0000E+00  0.2000E+01  0.2000E+01
    -36.249  0.0000E+00  0.0000E+00  0.2000E+01  0.2000E+01
    -36.054  0.0000E+00  0.0000E+00  0.2000E+01  0.2000E+01
    -35.859  0.0000E+00  0.0000E+00  0.2000E+01  0.2000E+01
    -35.665  0.0000E+00  0.0000E+00  0.2000E+01  0.2000E+01
    -35.470  0.0000E+00  0.0000E+00  0.2000E+01  0.2000E+01
    -35.275  0.0000E+00  0.0000E+00  0.2000E+01  0.2000E+01
    -35.081  0.0000E+00  0.0000E+00  0.2000E+01  0.2000E+01
    -34.886  0.0000E+00  0.0000E+00  0.2000E+01  0.2000E+01
    -34.691  0.0000E+00  0.0000E+00  0.2000E+01  0.2000E+01
    -34.497  0.0000E+00  0.0000E+00  0.2000E+01  0.2000E+01
    -34.302  0.0000E+00  0.0000E+00  0.2000E+01  0.2000E+01
    -34.108  0.0000E+00  0.0000E+00  0.2000E+01  0.2000E+01
    -33.913  0.0000E+00  0.0000E+00  0.2000E+01  0.2000E+01
    -33.718  0.0000E+00  0.0000E+00  0.2000E+01  0.2000E+01
    -33.524  0.0000E+00  0.0000E+00  0.2000E+01  0.2000E+01
    -33.329  0.0000E+00  0.0000E+00  0.2000E+01  0.2000E+01
    -33.134  0.0000E+00  0.0000E+00  0.2000E+01  0.2000E+01
    -32.940  0.0000E+00  0.0000E+00  0.2000E+01  0.2000E+01
    -32.745  0.0000E+00  0.0000E+00  0.2000E+01  0.2000E+01
    -32.550  0.0000E+00  0.0000E+00  0.2000E+01  0.2000E+01
    -32.356  0.0000E+00  0.0000E+00  0.2000E+01  0.2000E+01
    -32.161  0.0000E+00  0.0000E+00  0.2000E+01  0.2000E+01
    -31.966  0.0000E+00  0.0000E+00  0.2000E+01  0.2000E+01
    -31.772  0.0000E+00  0.0000E+00  0.2000E+01  0.2000E+01
    -31.577  0.0000E+00  0.0000E+00  0.2000E+01  0.2000E+01
    -31.382  0.0000E+00  0.0000E+00  0.2000E+01  0.2000E+01
    -31.188  0.0000E+00  0.0000E+00  0.2000E+01  0.2000E+01
    -30.993  0.0000E+00  0.0000E+00  0.2000E+01  0.2000E+01
    -30.799  0.0000E+00  0.0000E+00  0.2000E+01  0.2000E+01
    -30.604  0.0000E+00  0.0000E+00  0.2000E+01  0.2000E+01
    -30.409  0.0000E+00  0.0000E+00  0.2000E+01  0.2000E+01
    -30.215  0.0000E+00  0.0000E+00  0.2000E+01  0.2000E+01
    -30.020  0.0000E+00  0.0000E+00  0.2000E+01  0.2000E+01
    -29.825  0.0000E+00  0.0000E+00  0.2000E+01  0.2000E+01
    -29.631  0.0000E+00  0.0000E+00  0.2000E+01  0.2000E+01
    -29.436  0.0000E+00  0.0000E+00  0.2000E+01  0.2000E+01
    -29.241  0.0000E+00  0.0000E+00  0.2000E+01  0.2000E+01
    -29.047  0.0000E+00  0.0000E+00  0.2000E+01  0.2000E+01
    -28.852  0.0000E+00  0.0000E+00  0.2000E+01  0.2000E+01
    -28.657  0.0000E+00  0.0000E+00  0.2000E+01  0.2000E+01
    -28.463  0.0000E+00  0.0000E+00  0.2000E+01  0.2000E+01
    -28.268  0.0000E+00  0.0000E+00  0.2000E+01  0.2000E+01
    -28.074  0.0000E+00  0.0000E+00  0.2000E+01  0.2000E+01
    -27.879  0.0000E+00  0.0000E+00  0.2000E+01  0.2000E+01
    -27.684  0.0000E+00  0.0000E+00  0.2000E+01  0.2000E+01
    -27.490  0.0000E+00  0.0000E+00  0.2000E+01  0.2000E+01
    -27.295  0.0000E+00  0.0000E+00  0.2000E+01  0.2000E+01
    -27.100  0.0000E+00  0.0000E+00  0.2000E+01  0.2000E+01
    -26.906  0.0000E+00  0.0000E+00  0.2000E+01  0.2000E+01
    -26.711  0.0000E+00  0.0000E+00  0.2000E+01  0.2000E+01
    -26.516  0.2314E-07  0.0000E+00  0.2000E+01  0.2000E+01
    -26.322  0.1524E-02  0.9342E-04  0.2000E+01  0.2000E+01
    -26.127  0.7356E-01  0.6553E-02  0.2015E+01  0.2001E+01
    -25.932  0.2851E+01  0.3111E+00  0.2570E+01  0.2062E+01
    -25.738  0.1870E+02  0.7628E+01  0.6209E+01  0.3547E+01
    -25.543  0.8863E+01  0.1960E+02  0.7934E+01  0.7362E+01
    -25.348  0.2048E+00  0.3136E+01  0.7999E+01  0.7985E+01
    -25.154  0.0000E+00  0.0000E+00  0.8000E+01  0.8000E+01
    -24.959  0.0000E+00  0.0000E+00  0.8000E+01  0.8000E+01
    -24.765  0.0000E+00  0.0000E+00  0.8000E+01  0.8000E+01
    -24.570  0.0000E+00  0.0000E+00  0.8000E+01  0.8000E+01
    -24.375  0.0000E+00  0.0000E+00  0.8000E+01  0.8000E+01
    -24.181  0.0000E+00  0.0000E+00  0.8000E+01  0.8000E+01
    -23.986  0.0000E+00  0.0000E+00  0.8000E+01  0.8000E+01
    -23.791  0.0000E+00  0.0000E+00  0.8000E+01  0.8000E+01
    -23.597  0.0000E+00  0.0000E+00  0.8000E+01  0.8000E+01
    -23.402  0.0000E+00  0.0000E+00  0.8000E+01  0.8000E+01
    -23.207  0.0000E+00  0.0000E+00  0.8000E+01  0.8000E+01
    -23.013  0.0000E+00  0.0000E+00  0.8000E+01  0.8000E+01
    -22.818  0.0000E+00  0.0000E+00  0.8000E+01  0.8000E+01
    -22.623  0.0000E+00  0.0000E+00  0.8000E+01  0.8000E+01
    -22.429  0.0000E+00  0.0000E+00  0.8000E+01  0.8000E+01
    -22.234  0.0000E+00  0.0000E+00  0.8000E+01  0.8000E+01
    -22.039  0.0000E+00  0.0000E+00  0.8000E+01  0.8000E+01
    -21.845  0.0000E+00  0.0000E+00  0.8000E+01  0.8000E+01
    -21.650  0.0000E+00  0.0000E+00  0.8000E+01  0.8000E+01
    -21.456  0.0000E+00  0.0000E+00  0.8000E+01  0.8000E+01
    -21.261  0.0000E+00  0.0000E+00  0.8000E+01  0.8000E+01
    -21.066  0.0000E+00  0.0000E+00  0.8000E+01  0.8000E+01
    -20.872  0.0000E+00  0.0000E+00  0.8000E+01  0.8000E+01
    -20.677  0.0000E+00  0.0000E+00  0.8000E+01  0.8000E+01
    -20.482  0.0000E+00  0.0000E+00  0.8000E+01  0.8000E+01
    -20.288  0.0000E+00  0.0000E+00  0.8000E+01  0.8000E+01
    -20.093  0.0000E+00  0.0000E+00  0.8000E+01  0.8000E+01
    -19.898  0.0000E+00  0.0000E+00  0.8000E+01  0.8000E+01
    -19.704  0.0000E+00  0.0000E+00  0.8000E+01  0.8000E+01
    -19.509  0.0000E+00  0.0000E+00  0.8000E+01  0.8000E+01
    -19.314  0.0000E+00  0.0000E+00  0.8000E+01  0.8000E+01
    -19.120  0.0000E+00  0.0000E+00  0.8000E+01  0.8000E+01
    -18.925  0.0000E+00  0.0000E+00  0.8000E+01  0.8000E+01
    -18.730  0.0000E+00  0.0000E+00  0.8000E+01  0.8000E+01
    -18.536  0.0000E+00  0.0000E+00  0.8000E+01  0.8000E+01
    -18.341  0.0000E+00  0.0000E+00  0.8000E+01  0.8000E+01
    -18.147  0.0000E+00  0.0000E+00  0.8000E+01  0.8000E+01
    -17.952  0.0000E+00  0.0000E+00  0.8000E+01  0.8000E+01
    -17.757  0.0000E+00  0.0000E+00  0.8000E+01  0.8000E+01
    -17.563  0.0000E+00  0.0000E+00  0.8000E+01  0.8000E+01
    -17.368  0.0000E+00  0.0000E+00  0.8000E+01  0.8000E+01
    -17.173  0.0000E+00  0.0000E+00  0.8000E+01  0.8000E+01
    -16.979  0.0000E+00  0.0000E+00  0.8000E+01  0.8000E+01
    -16.784  0.0000E+00  0.0000E+00  0.8000E+01  0.8000E+01
    -16.589  0.0000E+00  0.0000E+00  0.8000E+01  0.8000E+01
    -16.395  0.0000E+00  0.0000E+00  0.8000E+01  0.8000E+01
    -16.200  0.0000E+00  0.0000E+00  0.8000E+01  0.8000E+01
    -16.005  0.0000E+00  0.0000E+00  0.8000E+01  0.8000E+01
    -15.811  0.0000E+00  0.0000E+00  0.8000E+01  0.8000E+01
    -15.616  0.0000E+00  0.0000E+00  0.8000E+01  0.8000E+01
    -15.421  0.0000E+00  0.0000E+00  0.8000E+01  0.8000E+01
    -15.227  0.0000E+00  0.0000E+00  0.8000E+01  0.8000E+01
    -15.032  0.0000E+00  0.0000E+00  0.8000E+01  0.8000E+01
    -14.838  0.0000E+00  0.0000E+00  0.8000E+01  0.8000E+01
    -14.643  0.0000E+00  0.0000E+00  0.8000E+01  0.8000E+01
    -14.448  0.0000E+00  0.0000E+00  0.8000E+01  0.8000E+01
    -14.254  0.0000E+00  0.0000E+00  0.8000E+01  0.8000E+01
    -14.059  0.0000E+00  0.0000E+00  0.8000E+01  0.8000E+01
    -13.864  0.0000E+00  0.0000E+00  0.8000E+01  0.8000E+01
    -13.670  0.0000E+00  0.0000E+00  0.8000E+01  0.8000E+01
    -13.475  0.0000E+00  0.0000E+00  0.8000E+01  0.8000E+01
    -13.280  0.0000E+00  0.0000E+00  0.8000E+01  0.8000E+01
    -13.086  0.0000E+00  0.0000E+00  0.8000E+01  0.8000E+01
    -12.891  0.0000E+00  0.0000E+00  0.8000E+01  0.8000E+01
    -12.696  0.0000E+00  0.0000E+00  0.8000E+01  0.8000E+01
    -12.502  0.0000E+00  0.0000E+00  0.8000E+01  0.8000E+01
    -12.307  0.0000E+00  0.0000E+00  0.8000E+01  0.8000E+01
    -12.112  0.0000E+00  0.0000E+00  0.8000E+01  0.8000E+01
    -11.918  0.0000E+00  0.0000E+00  0.8000E+01  0.8000E+01
    -11.723  0.0000E+00  0.0000E+00  0.8000E+01  0.8000E+01
    -11.529  0.0000E+00  0.0000E+00  0.8000E+01  0.8000E+01
    -11.334  0.0000E+00  0.0000E+00  0.8000E+01  0.8000E+01
    -11.139  0.0000E+00  0.0000E+00  0.8000E+01  0.8000E+01
    -10.945  0.0000E+00  0.0000E+00  0.8000E+01  0.8000E+01
    -10.750  0.0000E+00  0.0000E+00  0.8000E+01  0.8000E+01
    -10.555  0.0000E+00  0.0000E+00  0.8000E+01  0.8000E+01
    -10.361  0.0000E+00  0.0000E+00  0.8000E+01  0.8000E+01
    -10.166  0.0000E+00  0.0000E+00  0.8000E+01  0.8000E+01
     -9.971  0.0000E+00  0.0000E+00  0.8000E+01  0.8000E+01
     -9.777  0.0000E+00  0.0000E+00  0.8000E+01  0.8000E+01
     -9.582  0.0000E+00  0.0000E+00  0.8000E+01  0.8000E+01
     -9.387  0.0000E+00  0.0000E+00  0.8000E+01  0.8000E+01
     -9.193  0.0000E+00  0.0000E+00  0.8000E+01  0.8000E+01
     -8.998  0.0000E+00  0.0000E+00  0.8000E+01  0.8000E+01
     -8.803  0.0000E+00  0.0000E+00  0.8000E+01  0.8000E+01
     -8.609  0.0000E+00  0.0000E+00  0.8000E+01  0.8000E+01
     -8.414  0.0000E+00  0.0000E+00  0.8000E+01  0.8000E+01
     -8.220  0.0000E+00  0.0000E+00  0.8000E+01  0.8000E+01
     -8.025  0.0000E+00  0.0000E+00  0.8000E+01  0.8000E+01
     -7.830  0.0000E+00  0.0000E+00  0.8000E+01  0.8000E+01
     -7.636  0.0000E+00  0.0000E+00  0.8000E+01  0.8000E+01
     -7.441  0.0000E+00  0.0000E+00  0.8000E+01  0.8000E+01
     -7.246  0.0000E+00  0.0000E+00  0.8000E+01  0.8000E+01
     -7.052  0.0000E+00  0.0000E+00  0.8000E+01  0.8000E+01
     -6.857  0.0000E+00  0.0000E+00  0.8000E+01  0.8000E+01
     -6.662  0.0000E+00  0.0000E+00  0.8000E+01  0.8000E+01
     -6.468  0.0000E+00  0.0000E+00  0.8000E+01  0.8000E+01
     -6.273  0.0000E+00  0.0000E+00  0.8000E+01  0.8000E+01
     -6.078  0.0000E+00  0.0000E+00  0.8000E+01  0.8000E+01
     -5.884  0.0000E+00  0.0000E+00  0.8000E+01  0.8000E+01
     -5.689  0.0000E+00  0.0000E+00  0.8000E+01  0.8000E+01
     -5.494  0.0000E+00  0.0000E+00  0.8000E+01  0.8000E+01
     -5.300  0.0000E+00  0.0000E+00  0.8000E+01  0.8000E+01
     -5.105  0.0000E+00  0.0000E+00  0.8000E+01  0.8000E+01
     -4.911  0.0000E+00  0.0000E+00  0.8000E+01  0.8000E+01
     -4.716  0.0000E+00  0.0000E+00  0.8000E+01  0.8000E+01
     -4.521  0.0000E+00  0.0000E+00  0.8000E+01  0.8000E+01
     -4.327  0.0000E+00  0.0000E+00  0.8000E+01  0.8000E+01
     -4.132  0.0000E+00  0.0000E+00  0.8000E+01  0.8000E+01
     -3.937  0.0000E+00  0.0000E+00  0.8000E+01  0.8000E+01
     -3.743  0.0000E+00  0.0000E+00  0.8000E+01  0.8000E+01
     -3.548  0.0000E+00  0.0000E+00  0.8000E+01  0.8000E+01
     -3.353  0.0000E+00  0.0000E+00  0.8000E+01  0.8000E+01
     -3.159  0.0000E+00  0.0000E+00  0.8000E+01  0.8000E+01
     -2.964  0.0000E+00  0.0000E+00  0.8000E+01  0.8000E+01
     -2.769  0.0000E+00  0.0000E+00  0.8000E+01  0.8000E+01
     -2.575  0.2401E-05  0.0000E+00  0.8000E+01  0.8000E+01
     -2.380  0.1153E-03  0.7654E-06  0.8000E+01  0.8000E+01
     -2.186  0.4470E-02  0.4251E-04  0.8001E+01  0.8000E+01
     -1.991  0.4280E-01  0.1877E-02  0.8009E+01  0.8000E+01
     -1.796  0.8125E-01  0.2915E-01  0.8025E+01  0.8006E+01
     -1.602  0.1172E+00  0.6923E-01  0.8048E+01  0.8020E+01
     -1.407  0.1393E+00  0.1191E+00  0.8075E+01  0.8043E+01
     -1.212  0.1678E+00  0.1193E+00  0.8108E+01  0.8066E+01
     -1.018  0.1797E+00  0.1687E+00  0.8143E+01  0.8099E+01
     -0.823  0.2071E+00  0.1890E+00  0.8183E+01  0.8136E+01
     -0.628  0.2663E+00  0.1738E+00  0.8235E+01  0.8170E+01
     -0.434  0.2173E+00  0.2754E+00  0.8278E+01  0.8223E+01
     -0.239  0.3048E+00  0.2202E+00  0.8337E+01  0.8266E+01
     -0.044  0.3197E+00  0.2754E+00  0.8400E+01  0.8320E+01
      0.150  0.3594E+00  0.3234E+00  0.8470E+01  0.8383E+01
      0.345  0.3504E+00  0.3509E+00  0.8538E+01  0.8452E+01
      0.540  0.4091E+00  0.3596E+00  0.8618E+01  0.8522E+01
      0.734  0.5791E+00  0.3801E+00  0.8732E+01  0.8596E+01
      0.929  0.4809E+00  0.5655E+00  0.8825E+01  0.8706E+01
      1.123  0.7138E+00  0.4994E+00  0.8965E+01  0.8804E+01
      1.318  0.8199E+00  0.6247E+00  0.9125E+01  0.8926E+01
      1.513  0.8068E+00  0.8895E+00  0.9283E+01  0.9099E+01
      1.707  0.8617E+00  0.9052E+00  0.9451E+01  0.9276E+01
      1.902  0.1012E+01  0.9193E+00  0.9648E+01  0.9456E+01
      2.097  0.1128E+01  0.1097E+01  0.9868E+01  0.9670E+01
      2.291  0.1788E+01  0.1051E+01  0.1022E+02  0.9875E+01
      2.486  0.2569E+01  0.1508E+01  0.1072E+02  0.1017E+02
      2.681  0.2529E+01  0.2175E+01  0.1121E+02  0.1059E+02
      2.875  0.1673E+01  0.2406E+01  0.1154E+02  0.1106E+02
      3.070  0.1121E+01  0.2198E+01  0.1176E+02  0.1149E+02
      3.265  0.1009E+01  0.1328E+01  0.1196E+02  0.1175E+02
      3.459  0.1541E+01  0.1135E+01  0.1226E+02  0.1198E+02
      3.654  0.2890E+01  0.1795E+01  0.1282E+02  0.1233E+02
      3.849  0.3030E+01  0.3146E+01  0.1341E+02  0.1294E+02
      4.043  0.2910E+01  0.3053E+01  0.1398E+02  0.1353E+02
      4.238  0.3016E+01  0.3053E+01  0.1457E+02  0.1413E+02
      4.432  0.2159E+01  0.3005E+01  0.1499E+02  0.1472E+02
      4.627  0.1318E+01  0.1872E+01  0.1525E+02  0.1509E+02
      4.822  0.9579E+00  0.1151E+01  0.1544E+02  0.1531E+02
      5.016  0.8420E+00  0.9170E+00  0.1561E+02  0.1549E+02
      5.211  0.7685E+00  0.7886E+00  0.1576E+02  0.1565E+02
      5.406  0.5524E+00  0.6968E+00  0.1586E+02  0.1578E+02
      5.600  0.4962E+00  0.5799E+00  0.1596E+02  0.1590E+02
      5.795  0.1760E+00  0.4236E+00  0.1600E+02  0.1598E+02
      5.990  0.1696E-01  0.1037E+00  0.1600E+02  0.1600E+02
      6.184  0.0000E+00  0.3945E-02  0.1600E+02  0.1600E+02
      6.379  0.0000E+00  0.0000E+00  0.1600E+02  0.1600E+02
      6.574  0.0000E+00  0.0000E+00  0.1600E+02  0.1600E+02
      6.768  0.0000E+00  0.0000E+00  0.1600E+02  0.1600E+02
      6.963  0.0000E+00  0.0000E+00  0.1600E+02  0.1600E+02
      7.158  0.0000E+00  0.0000E+00  0.1600E+02  0.1600E+02
      7.352  0.0000E+00  0.0000E+00  0.1600E+02  0.1600E+02
      7.547  0.0000E+00  0.0000E+00  0.1600E+02  0.1600E+02
      7.741  0.0000E+00  0.0000E+00  0.1600E+02  0.1600E+02
      7.936  0.0000E+00  0.0000E+00  0.1600E+02  0.1600E+02
      8.131  0.0000E+00  0.0000E+00  0.1600E+02  0.1600E+02
      8.325  0.0000E+00  0.0000E+00  0.1600E+02  0.1600E+02
      8.520  0.0000E+00  0.0000E+00  0.1600E+02  0.1600E+02
      8.52005528    -49.87391697  301      2.72414692      1.00000000
    -49.874  0.0000E+00  0.0000E+00  0.0000E+00  0.0000E+00  0.0000E+00  0.0000E+00  0.0000E+00  0.0000E+00  0.0000E+00  0.0000E+00  0.0000E+00  0.0000E+00  0.0000E+00  0.0000E+00  0.0000E+00  0.0000E+00  0.0000E+00  0.0000E+00
    -49.679  0.0000E+00  0.0000E+00  0.0000E+00  0.0000E+00  0.0000E+00  0.0000E+00  0.0000E+00  0.0000E+00  0.0000E+00  0.0000E+00  0.0000E+00  0.0000E+00  0.0000E+00  0.0000E+00  0.0000E+00  0.0000E+00  0.0000E+00  0.0000E+00
    -49.485  0.0000E+00  0.0000E+00  0.0000E+00  0.0000E+00  0.0000E+00  0.0000E+00  0.0000E+00  0.0000E+00  0.0000E+00  0.0000E+00  0.0000E+00  0.0000E+00  0.0000E+00  0.0000E+00  0.0000E+00  0.0000E+00  0.0000E+00  0.0000E+00
    -49.290  0.0000E+00  0.0000E+00  0.0000E+00  0.0000E+00  0.0000E+00  0.0000E+00  0.0000E+00  0.0000E+00  0.0000E+00  0.0000E+00  0.0000E+00  0.0000E+00  0.0000E+00  0.0000E+00  0.0000E+00  0.0000E+00  0.0000E+00  0.0000E+00
    -49.095  0.0000E+00  0.0000E+00  0.0000E+00  0.0000E+00  0.0000E+00  0.0000E+00  0.0000E+00  0.0000E+00  0.0000E+00  0.0000E+00  0.0000E+00  0.0000E+00  0.0000E+00  0.0000E+00  0.0000E+00  0.0000E+00  0.0000E+00  0.0000E+00
    -48.901  0.0000E+00  0.0000E+00  0.0000E+00  0.0000E+00  0.0000E+00  0.0000E+00  0.0000E+00  0.0000E+00  0.0000E+00  0.0000E+00  0.0000E+00  0.0000E+00  0.0000E+00  0.0000E+00  0.0000E+00  0.0000E+00  0.0000E+00  0.0000E+00
    -48.706  0.0000E+00  0.0000E+00  0.0000E+00  0.0000E+00  0.0000E+00  0.0000E+00  0.0000E+00  0.0000E+00  0.0000E+00  0.0000E+00  0.0000E+00  0.0000E+00  0.0000E+00  0.0000E+00  0.0000E+00  0.0000E+00  0.0000E+00  0.0000E+00
    -48.511  0.0000E+00  0.0000E+00  0.0000E+00  0.0000E+00  0.0000E+00  0.0000E+00  0.0000E+00  0.0000E+00  0.0000E+00  0.0000E+00  0.0000E+00  0.0000E+00  0.0000E+00  0.0000E+00  0.0000E+00  0.0000E+00  0.0000E+00  0.0000E+00
    -48.317  0.0000E+00  0.0000E+00  0.0000E+00  0.0000E+00  0.0000E+00  0.0000E+00  0.0000E+00  0.0000E+00  0.0000E+00  0.0000E+00  0.0000E+00  0.0000E+00  0.0000E+00  0.0000E+00  0.0000E+00  0.0000E+00  0.0000E+00  0.0000E+00
    -48.122  0.0000E+00  0.0000E+00  0.0000E+00  0.0000E+00  0.0000E+00  0.0000E+00  0.0000E+00  0.0000E+00  0.0000E+00  0.0000E+00  0.0000E+00  0.0000E+00  0.0000E+00  0.0000E+00  0.0000E+00  0.0000E+00  0.0000E+00  0.0000E+00
    -47.927  0.0000E+00  0.0000E+00  0.0000E+00  0.0000E+00  0.0000E+00  0.0000E+00  0.0000E+00  0.0000E+00  0.0000E+00  0.0000E+00  0.0000E+00  0.0000E+00  0.0000E+00  0.0000E+00  0.0000E+00  0.0000E+00  0.0000E+00  0.0000E+00
    -47.733  0.1049E-03  0.0000E+00  0.3373E-10  0.0000E+00  0.5349E-10  0.0000E+00  0.3373E-10  0.0000E+00  0.8369E-11  0.0000E+00  0.1289E-10  0.0000E+00  0.1580E-10  0.0000E+00  0.1289E-10  0.0000E+00  0.8369E-11  0.0000E+00
    -47.538  0.5038E-02  0.4577E-03  0.1619E-08  0.1439E-09  0.2567E-08  0.2301E-09  0.1619E-08  0.1439E-09  0.4018E-09  0.3681E-10  0.6190E-09  0.5439E-10  0.7584E-09  0.1142E-09  0.6190E-09  0.5439E-10  0.4018E-09  0.3681E-10
    -47.344  0.2352E+00  0.2190E-01  0.7523E-07  0.6883E-08  0.1195E-06  0.1100E-07  0.7523E-07  0.6883E-08  0.1877E-07  0.1761E-08  0.2899E-07  0.2603E-08  0.3543E-07  0.5463E-08  0.2899E-07  0.2603E-08  0.1877E-07  0.1761E-08
    -47.149  0.3361E+01  0.8803E+00  0.1004E-05  0.2719E-06  0.1625E-05  0.4370E-06  0.1004E-05  0.2719E-06  0.2689E-06  0.7093E-07  0.4295E-06  0.1057E-06  0.5101E-06  0.2182E-06  0.4295E-06  0.1057E-06  0.2689E-06  0.7093E-07
    -46.954  0.1473E+01  0.3764E+01  0.4007E-06  0.1065E-05  0.6646E-06  0.1753E-05  0.4007E-06  0.1065E-05  0.1169E-06  0.3024E-06  0.1945E-06  0.4702E-06  0.2245E-06  0.9014E-06  0.1945E-06  0.4702E-06  0.1169E-06  0.3024E-06
    -46.760  0.0000E+00  0.4424E+00  0.0000E+00  0.1156E-06  0.0000E+00  0.1941E-06  0.0000E+00  0.1156E-06  0.0000E+00  0.3515E-07  0.0000E+00  0.5657E-07  0.0000E+00  0.1026E-06  0.0000E+00  0.5657E-07  0.0000E+00  0.3515E-07
    -46.565  0.0000E+00  0.0000E+00  0.0000E+00  0.0000E+00  0.0000E+00  0.0000E+00  0.0000E+00  0.0000E+00  0.0000E+00  0.0000E+00  0.0000E+00  0.0000E+00  0.0000E+00  0.0000E+00  0.0000E+00  0.0000E+00  0.0000E+00  0.0000E+00
    -46.370  0.0000E+00  0.0000E+00  0.0000E+00  0.0000E+00  0.0000E+00  0.0000E+00  0.0000E+00  0.0000E+00  0.0000E+00  0.0000E+00  0.0000E+00  0.0000E+00  0.0000E+00  0.0000E+00  0.0000E+00  0.0000E+00  0.0000E+00  0.0000E+00
    -46.176  0.0000E+00  0.0000E+00  0.0000E+00  0.0000E+00  0.0000E+00  0.0000E+00  0.0000E+00  0.0000E+00  0.0000E+00  0.0000E+00  0.0000E+00  0.0000E+00  0.0000E+00  0.0000E+00  0.0000E+00  0.0000E+00  0.0000E+00  0.0000E+00
    -45.981  0.0000E+00  0.0000E+00  0.0000E+00  0.0000E+00  0.0000E+00  0.0000E+00  0.0000E+00  0.0000E+00  0.0000E+00  0.0000E+00  0.0000E+00  0.0000E+00  0.0000E+00  0.0000E+00  0.0000E+00  0.0000E+00  0.0000E+00  0.0000E+00
    -45.786  0.0000E+00  0.0000E+00  0.0000E+00  0.0000E+00  0.0000E+00  0.0000E+00  0.0000E+00  0.0000E+00  0.0000E+00  0.0000E+00  0.0000E+00  0.0000E+00  0.0000E+00  0.0000E+00  0.0000E+00  0.0000E+00  0.0000E+00  0.0000E+00
    -45.592  0.0000E+00  0.0000E+00  0.0000E+00  0.0000E+00  0.0000E+00  0.0000E+00  0.0000E+00  0.0000E+00  0.0000E+00  0.0000E+00  0.0000E+00  0.0000E+00  0.0000E+00  0.0000E+00  0.0000E+00  0.0000E+00  0.0000E+00  0.0000E+00
    -45.397  0.0000E+00  0.0000E+00  0.0000E+00  0.0000E+00  0.0000E+00  0.0000E+00  0.0000E+00  0.0000E+00  0.0000E+00  0.0000E+00  0.0000E+00  0.0000E+00  0.0000E+00  0.0000E+00  0.0000E+00  0.0000E+00  0.0000E+00  0.0000E+00
    -45.202  0.0000E+00  0.0000E+00  0.0000E+00  0.0000E+00  0.0000E+00  0.0000E+00  0.0000E+00  0.0000E+00  0.0000E+00  0.0000E+00  0.0000E+00  0.0000E+00  0.0000E+00  0.0000E+00  0.0000E+00  0.0000E+00  0.0000E+00  0.0000E+00
    -45.008  0.0000E+00  0.0000E+00  0.0000E+00  0.0000E+00  0.0000E+00  0.0000E+00  0.0000E+00  0.0000E+00  0.0000E+00  0.0000E+00  0.0000E+00  0.0000E+00  0.0000E+00  0.0000E+00  0.0000E+00  0.0000E+00  0.0000E+00  0.0000E+00
    -44.813  0.0000E+00  0.0000E+00  0.0000E+00  0.0000E+00  0.0000E+00  0.0000E+00  0.0000E+00  0.0000E+00  0.0000E+00  0.0000E+00  0.0000E+00  0.0000E+00  0.0000E+00  0.0000E+00  0.0000E+00  0.0000E+00  0.0000E+00  0.0000E+00
    -44.618  0.0000E+00  0.0000E+00  0.0000E+00  0.0000E+00  0.0000E+00  0.0000E+00  0.0000E+00  0.0000E+00  0.0000E+00  0.0000E+00  0.0000E+00  0.0000E+00  0.0000E+00  0.0000E+00  0.0000E+00  0.0000E+00  0.0000E+00  0.0000E+00
    -44.424  0.0000E+00  0.0000E+00  0.0000E+00  0.0000E+00  0.0000E+00  0.0000E+00  0.0000E+00  0.0000E+00  0.0000E+00  0.0000E+00  0.0000E+00  0.0000E+00  0.0000E+00  0.0000E+00  0.0000E+00  0.0000E+00  0.0000E+00  0.0000E+00
    -44.229  0.0000E+00  0.0000E+00  0.0000E+00  0.0000E+00  0.0000E+00  0.0000E+00  0.0000E+00  0.0000E+00  0.0000E+00  0.0000E+00  0.0000E+00  0.0000E+00  0.0000E+00  0.0000E+00  0.0000E+00  0.0000E+00  0.0000E+00  0.0000E+00
    -44.035  0.0000E+00  0.0000E+00  0.0000E+00  0.0000E+00  0.0000E+00  0.0000E+00  0.0000E+00  0.0000E+00  0.0000E+00  0.0000E+00  0.0000E+00  0.0000E+00  0.0000E+00  0.0000E+00  0.0000E+00  0.0000E+00  0.0000E+00  0.0000E+00
    -43.840  0.0000E+00  0.0000E+00  0.0000E+00  0.0000E+00  0.0000E+00  0.0000E+00  0.0000E+00  0.0000E+00  0.0000E+00  0.0000E+00  0.0000E+00  0.0000E+00  0.0000E+00  0.0000E+00  0.0000E+00  0.0000E+00  0.0000E+00  0.0000E+00
    -43.645  0.0000E+00  0.0000E+00  0.0000E+00  0.0000E+00  0.0000E+00  0.0000E+00  0.0000E+00  0.0000E+00  0.0000E+00  0.0000E+00  0.0000E+00  0.0000E+00  0.0000E+00  0.0000E+00  0.0000E+00  0.0000E+00  0.0000E+00  0.0000E+00
    -43.451  0.0000E+00  0.0000E+00  0.0000E+00  0.0000E+00  0.0000E+00  0.0000E+00  0.0000E+00  0.0000E+00  0.0000E+00  0.0000E+00  0.0000E+00  0.0000E+00  0.0000E+00  0.0000E+00  0.0000E+00  0.0000E+00  0.0000E+00  0.0000E+00
    -43.256  0.0000E+00  0.0000E+00  0.0000E+00  0.0000E+00  0.0000E+00  0.0000E+00  0.0000E+00  0.0000E+00  0.0000E+00  0.0000E+00  0.0000E+00  0.0000E+00  0.0000E+00  0.0000E+00  0.0000E+00  0.0000E+00  0.0000E+00  0.0000E+00
    -43.061  0.0000E+00  0.0000E+00  0.0000E+00  0.0000E+00  0.0000E+00  0.0000E+00  0.0000E+00  0.0000E+00  0.0000E+00  0.0000E+00  0.0000E+00  0.0000E+00  0.0000E+00  0.0000E+00  0.0000E+00  0.0000E+00  0.0000E+00  0.0000E+00
    -42.867  0.0000E+00  0.0000E+00  0.0000E+00  0.0000E+00  0.0000E+00  0.0000E+00  0.0000E+00  0.0000E+00  0.0000E+00  0.0000E+00  0.0000E+00  0.0000E+00  0.0000E+00  0.0000E+00  0.0000E+00  0.0000E+00  0.0000E+00  0.0000E+00
    -42.672  0.0000E+00  0.0000E+00  0.0000E+00  0.0000E+00  0.0000E+00  0.0000E+00  0.0000E+00  0.0000E+00  0.0000E+00  0.0000E+00  0.0000E+00  0.0000E+00  0.0000E+00  0.0000E+00  0.0000E+00  0.0000E+00  0.0000E+00  0.0000E+00
    -42.477  0.0000E+00  0.0000E+00  0.0000E+00  0.0000E+00  0.0000E+00  0.0000E+00  0.0000E+00  0.0000E+00  0.0000E+00  0.0000E+00  0.0000E+00  0.0000E+00  0.0000E+00  0.0000E+00  0.0000E+00  0.0000E+00  0.0000E+00  0.0000E+00
    -42.283  0.0000E+00  0.0000E+00  0.0000E+00  0.0000E+00  0.0000E+00  0.0000E+00  0.0000E+00  0.0000E+00  0.0000E+00  0.0000E+00  0.0000E+00  0.0000E+00  0.0000E+00  0.0000E+00  0.0000E+00  0.0000E+00  0.0000E+00  0.0000E+00
    -42.088  0.0000E+00  0.0000E+00  0.0000E+00  0.0000E+00  0.0000E+00  0.0000E+00  0.0000E+00  0.0000E+00  0.0000E+00  0.0000E+00  0.0000E+00  0.0000E+00  0.0000E+00  0.0000E+00  0.0000E+00  0.0000E+00  0.0000E+00  0.0000E+00
    -41.893  0.0000E+00  0.0000E+00  0.0000E+00  0.0000E+00  0.0000E+00  0.0000E+00  0.0000E+00  0.0000E+00  0.0000E+00  0.0000E+00  0.0000E+00  0.0000E+00  0.0000E+00  0.0000E+00  0.0000E+00  0.0000E+00  0.0000E+00  0.0000E+00
    -41.699  0.0000E+00  0.0000E+00  0.0000E+00  0.0000E+00  0.0000E+00  0.0000E+00  0.0000E+00  0.0000E+00  0.0000E+00  0.0000E+00  0.0000E+00  0.0000E+00  0.0000E+00  0.0000E+00  0.0000E+00  0.0000E+00  0.0000E+00  0.0000E+00
    -41.504  0.0000E+00  0.0000E+00  0.0000E+00  0.0000E+00  0.0000E+00  0.0000E+00  0.0000E+00  0.0000E+00  0.0000E+00  0.0000E+00  0.0000E+00  0.0000E+00  0.0000E+00  0.0000E+00  0.0000E+00  0.0000E+00  0.0000E+00  0.0000E+00
    -41.309  0.0000E+00  0.0000E+00  0.0000E+00  0.0000E+00  0.0000E+00  0.0000E+00  0.0000E+00  0.0000E+00  0.0000E+00  0.0000E+00  0.0000E+00  0.0000E+00  0.0000E+00  0.0000E+00  0.0000E+00  0.0000E+00  0.0000E+00  0.0000E+00
    -41.115  0.0000E+00  0.0000E+00  0.0000E+00  0.0000E+00  0.0000E+00  0.0000E+00  0.0000E+00  0.0000E+00  0.0000E+00  0.0000E+00  0.0000E+00  0.0000E+00  0.0000E+00  0.0000E+00  0.0000E+00  0.0000E+00  0.0000E+00  0.0000E+00
    -40.920  0.0000E+00  0.0000E+00  0.0000E+00  0.0000E+00  0.0000E+00  0.0000E+00  0.0000E+00  0.0000E+00  0.0000E+00  0.0000E+00  0.0000E+00  0.0000E+00  0.0000E+00  0.0000E+00  0.0000E+00  0.0000E+00  0.0000E+00  0.0000E+00
    -40.726  0.0000E+00  0.0000E+00  0.0000E+00  0.0000E+00  0.0000E+00  0.0000E+00  0.0000E+00  0.0000E+00  0.0000E+00  0.0000E+00  0.0000E+00  0.0000E+00  0.0000E+00  0.0000E+00  0.0000E+00  0.0000E+00  0.0000E+00  0.0000E+00
    -40.531  0.0000E+00  0.0000E+00  0.0000E+00  0.0000E+00  0.0000E+00  0.0000E+00  0.0000E+00  0.0000E+00  0.0000E+00  0.0000E+00  0.0000E+00  0.0000E+00  0.0000E+00  0.0000E+00  0.0000E+00  0.0000E+00  0.0000E+00  0.0000E+00
    -40.336  0.0000E+00  0.0000E+00  0.0000E+00  0.0000E+00  0.0000E+00  0.0000E+00  0.0000E+00  0.0000E+00  0.0000E+00  0.0000E+00  0.0000E+00  0.0000E+00  0.0000E+00  0.0000E+00  0.0000E+00  0.0000E+00  0.0000E+00  0.0000E+00
    -40.142  0.0000E+00  0.0000E+00  0.0000E+00  0.0000E+00  0.0000E+00  0.0000E+00  0.0000E+00  0.0000E+00  0.0000E+00  0.0000E+00  0.0000E+00  0.0000E+00  0.0000E+00  0.0000E+00  0.0000E+00  0.0000E+00  0.0000E+00  0.0000E+00