   2   2   1   0
  0.2854640E+02  0.3486020E-09  0.3486019E-09  0.5424891E-09  0.5000000E-15
  1.000000000000000E-004
  CAR 
 unknown system                          
      8.75582558    -49.65191101  301      2.86825952      1.00000000
    -49.652  0.0000E+00  0.0000E+00  0.0000E+00  0.0000E+00
    -49.457  0.0000E+00  0.0000E+00  0.0000E+00  0.0000E+00
    -49.263  0.0000E+00  0.0000E+00  0.0000E+00  0.0000E+00
    -49.068  0.0000E+00  0.0000E+00  0.0000E+00  0.0000E+00
    -48.873  0.0000E+00  0.0000E+00  0.0000E+00  0.0000E+00
    -48.678  0.0000E+00  0.0000E+00  0.0000E+00  0.0000E+00
    -48.484  0.0000E+00  0.0000E+00  0.0000E+00  0.0000E+00
    -48.289  0.0000E+00  0.0000E+00  0.0000E+00  0.0000E+00
    -48.094  0.0000E+00  0.0000E+00  0.0000E+00  0.0000E+00
    -47.900  0.0000E+00  0.0000E+00  0.0000E+00  0.0000E+00
    -47.705  0.0000E+00  0.0000E+00  0.0000E+00  0.0000E+00
    -47.510  0.1956E-03  0.0000E+00  0.3808E-04  0.0000E+00
    -47.316  0.9399E-02  0.9484E-03  0.1868E-02  0.1846E-03
    -47.121  0.4405E+00  0.4540E-01  0.8763E-01  0.9024E-02
    -46.926  0.6612E+01  0.1813E+01  0.1375E+01  0.3620E+00
    -46.732  0.3116E+01  0.7527E+01  0.1981E+01  0.1828E+01
    -46.537  0.0000E+00  0.8659E+00  0.2000E+01  0.1996E+01
    -46.342  0.0000E+00  0.0000E+00  0.2000E+01  0.2000E+01
    -46.147  0.0000E+00  0.0000E+00  0.2000E+01  0.2000E+01
    -45.953  0.0000E+00  0.0000E+00  0.2000E+01  0.2000E+01
    -45.758  0.0000E+00  0.0000E+00  0.2000E+01  0.2000E+01
    -45.563  0.0000E+00  0.0000E+00  0.2000E+01  0.2000E+01
    -45.369  0.0000E+00  0.0000E+00  0.2000E+01  0.2000E+01
    -45.174  0.0000E+00  0.0000E+00  0.2000E+01  0.2000E+01
    -44.979  0.0000E+00  0.0000E+00  0.2000E+01  0.2000E+01
    -44.785  0.0000E+00  0.0000E+00  0.2000E+01  0.2000E+01
    -44.590  0.0000E+00  0.0000E+00  0.2000E+01  0.2000E+01
    -44.395  0.0000E+00  0.0000E+00  0.2000E+01  0.2000E+01
    -44.201  0.0000E+00  0.0000E+00  0.2000E+01  0.2000E+01
    -44.006  0.0000E+00  0.0000E+00  0.2000E+01  0.2000E+01
    -43.811  0.0000E+00  0.0000E+00  0.2000E+01  0.2000E+01
    -43.616  0.0000E+00  0.0000E+00  0.2000E+01  0.2000E+01
    -43.422  0.0000E+00  0.0000E+00  0.2000E+01  0.2000E+01
    -43.227  0.0000E+00  0.0000E+00  0.2000E+01  0.2000E+01
    -43.032  0.0000E+00  0.0000E+00  0.2000E+01  0.2000E+01
    -42.838  0.0000E+00  0.0000E+00  0.2000E+01  0.2000E+01
    -42.643  0.0000E+00  0.0000E+00  0.2000E+01  0.2000E+01
    -42.448  0.0000E+00  0.0000E+00  0.2000E+01  0.2000E+01
    -42.254  0.0000E+00  0.0000E+00  0.2000E+01  0.2000E+01
    -42.059  0.0000E+00  0.0000E+00  0.2000E+01  0.2000E+01
    -41.864  0.0000E+00  0.0000E+00  0.2000E+01  0.2000E+01
    -41.670  0.0000E+00  0.0000E+00  0.2000E+01  0.2000E+01
    -41.475  0.0000E+00  0.0000E+00  0.2000E+01  0.2000E+01
    -41.280  0.0000E+00  0.0000E+00  0.2000E+01  0.2000E+01
    -41.085  0.0000E+00  0.0000E+00  0.2000E+01  0.2000E+01
    -40.891  0.0000E+00  0.0000E+00  0.2000E+01  0.2000E+01
    -40.696  0.0000E+00  0.0000E+00  0.2000E+01  0.2000E+01
    -40.501  0.0000E+00  0.0000E+00  0.2000E+01  0.2000E+01
    -40.307  0.0000E+00  0.0000E+00  0.2000E+01  0.2000E+01
    -40.112  0.0000E+00  0.0000E+00  0.2000E+01  0.2000E+01
    -39.917  0.0000E+00  0.0000E+00  0.2000E+01  0.2000E+01
    -39.723  0.0000E+00  0.0000E+00  0.2000E+01  0.2000E+01
    -39.528  0.0000E+00  0.0000E+00  0.2000E+01  0.2000E+01
    -39.333  0.0000E+00  0.0000E+00  0.2000E+01  0.2000E+01
    -39.139  0.0000E+00  0.0000E+00  0.2000E+01  0.2000E+01
    -38.944  0.0000E+00  0.0000E+00  0.2000E+01  0.2000E+01
    -38.749  0.0000E+00  0.0000E+00  0.2000E+01  0.2000E+01
    -38.554  0.0000E+00  0.0000E+00  0.2000E+01  0.2000E+01
    -38.360  0.0000E+00  0.0000E+00  0.2000E+01  0.2000E+01
    -38.165  0.0000E+00  0.0000E+00  0.2000E+01  0.2000E+01
    -37.970  0.0000E+00  0.0000E+00  0.2000E+01  0.2000E+01
    -37.776  0.0000E+00  0.0000E+00  0.2000E+01  0.2000E+01
    -37.581  0.0000E+00  0.0000E+00  0.2000E+01  0.2000E+01
    -37.386  0.0000E+00  0.0000E+00  0.2000E+01  0.2000E+01
    -37.192  0.0000E+00  0.0000E+00  0.2000E+01  0.2000E+01
    -36.997  0.0000E+00  0.0000E+00  0.2000E+01  0.2000E+01
    -36.802  0.0000E+00  0.0000E+00  0.2000E+01  0.2000E+01
    -36.608  0.0000E+00  0.0000E+00  0.2000E+01  0.2000E+01
    -36.413  0.0000E+00  0.0000E+00  0.2000E+01  0.2000E+01
    -36.218  0.0000E+00  0.0000E+00  0.2000E+01  0.2000E+01
    -36.023  0.0000E+00  0.0000E+00  0.2000E+01  0.2000E+01
    -35.829  0.0000E+00  0.0000E+00  0.2000E+01  0.2000E+01
    -35.634  0.0000E+00  0.0000E+00  0.2000E+01  0.2000E+01
    -35.439  0.0000E+00  0.0000E+00  0.2000E+01  0.2000E+01
    -35.245  0.0000E+00  0.0000E+00  0.2000E+01  0.2000E+01
    -35.050  0.0000E+00  0.0000E+00  0.2000E+01  0.2000E+01
    -34.855  0.0000E+00  0.0000E+00  0.2000E+01  0.2000E+01
    -34.661  0.0000E+00  0.0000E+00  0.2000E+01  0.2000E+01
    -34.466  0.0000E+00  0.0000E+00  0.2000E+01  0.2000E+01
    -34.271  0.0000E+00  0.0000E+00  0.2000E+01  0.2000E+01
    -34.077  0.0000E+00  0.0000E+00  0.2000E+01  0.2000E+01
    -33.882  0.0000E+00  0.0000E+00  0.2000E+01  0.2000E+01
    -33.687  0.0000E+00  0.0000E+00  0.2000E+01  0.2000E+01
    -33.492  0.0000E+00  0.0000E+00  0.2000E+01  0.2000E+01
    -33.298  0.0000E+00  0.0000E+00  0.2000E+01  0.2000E+01
    -33.103  0.0000E+00  0.0000E+00  0.2000E+01  0.2000E+01
    -32.908  0.0000E+00  0.0000E+00  0.2000E+01  0.2000E+01
    -32.714  0.0000E+00  0.0000E+00  0.2000E+01  0.2000E+01
    -32.519  0.0000E+00  0.0000E+00  0.2000E+01  0.2000E+01
    -32.324  0.0000E+00  0.0000E+00  0.2000E+01  0.2000E+01
    -32.130  0.0000E+00  0.0000E+00  0.2000E+01  0.2000E+01
    -31.935  0.0000E+00  0.0000E+00  0.2000E+01  0.2000E+01
    -31.740  0.0000E+00  0.0000E+00  0.2000E+01  0.2000E+01
    -31.546  0.0000E+00  0.0000E+00  0.2000E+01  0.2000E+01
    -31.351  0.0000E+00  0.0000E+00  0.2000E+01  0.2000E+01
    -31.156  0.0000E+00  0.0000E+00  0.2000E+01  0.2000E+01
    -30.961  0.0000E+00  0.0000E+00  0.2000E+01  0.2000E+01
    -30.767  0.0000E+00  0.0000E+00  0.2000E+01  0.2000E+01
    -30.572  0.0000E+00  0.0000E+00  0.2000E+01  0.2000E+01
    -30.377  0.0000E+00  0.0000E+00  0.2000E+01  0.2000E+01
    -30.183  0.0000E+00  0.0000E+00  0.2000E+01  0.2000E+01
    -29.988  0.0000E+00  0.0000E+00  0.2000E+01  0.2000E+01
    -29.793  0.0000E+00  0.0000E+00  0.2000E+01  0.2000E+01
    -29.599  0.0000E+00  0.0000E+00  0.2000E+01  0.2000E+01
    -29.404  0.0000E+00  0.0000E+00  0.2000E+01  0.2000E+01
    -29.209  0.0000E+00  0.0000E+00  0.2000E+01  0.2000E+01
    -29.015  0.0000E+00  0.0000E+00  0.2000E+01  0.2000E+01
    -28.820  0.0000E+00  0.0000E+00  0.2000E+01  0.2000E+01
    -28.625  0.0000E+00  0.0000E+00  0.2000E+01  0.2000E+01
    -28.430  0.0000E+00  0.0000E+00  0.2000E+01  0.2000E+01
    -28.236  0.0000E+00  0.0000E+00  0.2000E+01  0.2000E+01
    -28.041  0.0000E+00  0.0000E+00  0.2000E+01  0.2000E+01
    -27.846  0.0000E+00  0.0000E+00  0.2000E+01  0.2000E+01
    -27.652  0.0000E+00  0.0000E+00  0.2000E+01  0.2000E+01
    -27.457  0.0000E+00  0.0000E+00  0.2000E+01  0.2000E+01
    -27.262  0.0000E+00  0.0000E+00  0.2000E+01  0.2000E+01
    -27.068  0.0000E+00  0.0000E+00  0.2000E+01  0.2000E+01
    -26.873  0.0000E+00  0.0000E+00  0.2000E+01  0.2000E+01
    -26.678  0.0000E+00  0.0000E+00  0.2000E+01  0.2000E+01
    -26.484  0.0000E+00  0.0000E+00  0.2000E+01  0.2000E+01
    -26.289  0.2450E-05  0.0000E+00  0.2000E+01  0.2000E+01
    -26.094  0.1985E-02  0.1552E-03  0.2000E+01  0.2000E+01
    -25.899  0.9562E-01  0.9468E-02  0.2019E+01  0.2002E+01
    -25.705  0.3414E+01  0.4438E+00  0.2684E+01  0.2088E+01
    -25.510  0.1846E+02  0.8788E+01  0.6278E+01  0.3799E+01
    -25.315  0.8517E+01  0.1868E+02  0.7936E+01  0.7436E+01
    -25.121  0.1989E+00  0.2766E+01  0.7999E+01  0.7987E+01
    -24.926  0.0000E+00  0.0000E+00  0.8000E+01  0.8000E+01
    -24.731  0.0000E+00  0.0000E+00  0.8000E+01  0.8000E+01
    -24.537  0.0000E+00  0.0000E+00  0.8000E+01  0.8000E+01
    -24.342  0.0000E+00  0.0000E+00  0.8000E+01  0.8000E+01
    -24.147  0.0000E+00  0.0000E+00  0.8000E+01  0.8000E+01
    -23.953  0.0000E+00  0.0000E+00  0.8000E+01  0.8000E+01
    -23.758  0.0000E+00  0.0000E+00  0.8000E+01  0.8000E+01
    -23.563  0.0000E+00  0.0000E+00  0.8000E+01  0.8000E+01
    -23.368  0.0000E+00  0.0000E+00  0.8000E+01  0.8000E+01
    -23.174  0.0000E+00  0.0000E+00  0.8000E+01  0.8000E+01
    -22.979  0.0000E+00  0.0000E+00  0.8000E+01  0.8000E+01
    -22.784  0.0000E+00  0.0000E+00  0.8000E+01  0.8000E+01
    -22.590  0.0000E+00  0.0000E+00  0.8000E+01  0.8000E+01
    -22.395  0.0000E+00  0.0000E+00  0.8000E+01  0.8000E+01
    -22.200  0.0000E+00  0.0000E+00  0.8000E+01  0.8000E+01
    -22.006  0.0000E+00  0.0000E+00  0.8000E+01  0.8000E+01
    -21.811  0.0000E+00  0.0000E+00  0.8000E+01  0.8000E+01
    -21.616  0.0000E+00  0.0000E+00  0.8000E+01  0.8000E+01
    -21.422  0.0000E+00  0.0000E+00  0.8000E+01  0.8000E+01
    -21.227  0.0000E+00  0.0000E+00  0.8000E+01  0.8000E+01
    -21.032  0.0000E+00  0.0000E+00  0.8000E+01  0.8000E+01
    -20.837  0.0000E+00  0.0000E+00  0.8000E+01  0.8000E+01
    -20.643  0.0000E+00  0.0000E+00  0.8000E+01  0.8000E+01
    -20.448  0.0000E+00  0.0000E+00  0.8000E+01  0.8000E+01
    -20.253  0.0000E+00  0.0000E+00  0.8000E+01  0.8000E+01
    -20.059  0.0000E+00  0.0000E+00  0.8000E+01  0.8000E+01
    -19.864  0.0000E+00  0.0000E+00  0.8000E+01  0.8000E+01
    -19.669  0.0000E+00  0.0000E+00  0.8000E+01  0.8000E+01
    -19.475  0.0000E+00  0.0000E+00  0.8000E+01  0.8000E+01
    -19.280  0.0000E+00  0.0000E+00  0.8000E+01  0.8000E+01
    -19.085  0.0000E+00  0.0000E+00  0.8000E+01  0.8000E+01
    -18.891  0.0000E+00  0.0000E+00  0.8000E+01  0.8000E+01
    -18.696  0.0000E+00  0.0000E+00  0.8000E+01  0.8000E+01
    -18.501  0.0000E+00  0.0000E+00  0.8000E+01  0.8000E+01
    -18.306  0.0000E+00  0.0000E+00  0.8000E+01  0.8000E+01
    -18.112  0.0000E+00  0.0000E+00  0.8000E+01  0.8000E+01
    -17.917  0.0000E+00  0.0000E+00  0.8000E+01  0.8000E+01
    -17.722  0.0000E+00  0.0000E+00  0.8000E+01  0.8000E+01
    -17.528  0.0000E+00  0.0000E+00  0.8000E+01  0.8000E+01
    -17.333  0.0000E+00  0.0000E+00  0.8000E+01  0.8000E+01
    -17.138  0.0000E+00  0.0000E+00  0.8000E+01  0.8000E+01
    -16.944  0.0000E+00  0.0000E+00  0.8000E+01  0.8000E+01
    -16.749  0.0000E+00  0.0000E+00  0.8000E+01  0.8000E+01
    -16.554  0.0000E+00  0.0000E+00  0.8000E+01  0.8000E+01
    -16.360  0.0000E+00  0.0000E+00  0.8000E+01  0.8000E+01
    -16.165  0.0000E+00  0.0000E+00  0.8000E+01  0.8000E+01
    -15.970  0.0000E+00  0.0000E+00  0.8000E+01  0.8000E+01
    -15.775  0.0000E+00  0.0000E+00  0.8000E+01  0.8000E+01
    -15.581  0.0000E+00  0.0000E+00  0.8000E+01  0.8000E+01
    -15.386  0.0000E+00  0.0000E+00  0.8000E+01  0.8000E+01
    -15.191  0.0000E+00  0.0000E+00  0.8000E+01  0.8000E+01
    -14.997  0.0000E+00  0.0000E+00  0.8000E+01  0.8000E+01
    -14.802  0.0000E+00  0.0000E+00  0.8000E+01  0.8000E+01
    -14.607  0.0000E+00  0.0000E+00  0.8000E+01  0.8000E+01
    -14.413  0.0000E+00  0.0000E+00  0.8000E+01  0.8000E+01
    -14.218  0.0000E+00  0.0000E+00  0.8000E+01  0.8000E+01
    -14.023  0.0000E+00  0.0000E+00  0.8000E+01  0.8000E+01
    -13.828  0.0000E+00  0.0000E+00  0.8000E+01  0.8000E+01
    -13.634  0.0000E+00  0.0000E+00  0.8000E+01  0.8000E+01
    -13.439  0.0000E+00  0.0000E+00  0.8000E+01  0.8000E+01
    -13.244  0.0000E+00  0.0000E+00  0.8000E+01  0.8000E+01
    -13.050  0.0000E+00  0.0000E+00  0.8000E+01  0.8000E+01
    -12.855  0.0000E+00  0.0000E+00  0.8000E+01  0.8000E+01
    -12.660  0.0000E+00  0.0000E+00  0.8000E+01  0.8000E+01
    -12.466  0.0000E+00  0.0000E+00  0.8000E+01  0.8000E+01
    -12.271  0.0000E+00  0.0000E+00  0.8000E+01  0.8000E+01
    -12.076  0.0000E+00  0.0000E+00  0.8000E+01  0.8000E+01
    -11.882  0.0000E+00  0.0000E+00  0.8000E+01  0.8000E+01
    -11.687  0.0000E+00  0.0000E+00  0.8000E+01  0.8000E+01
    -11.492  0.0000E+00  0.0000E+00  0.8000E+01  0.8000E+01
    -11.297  0.0000E+00  0.0000E+00  0.8000E+01  0.8000E+01
    -11.103  0.0000E+00  0.0000E+00  0.8000E+01  0.8000E+01
    -10.908  0.0000E+00  0.0000E+00  0.8000E+01  0.8000E+01
    -10.713  0.0000E+00  0.0000E+00  0.8000E+01  0.8000E+01
    -10.519  0.0000E+00  0.0000E+00  0.8000E+01  0.8000E+01
    -10.324  0.0000E+00  0.0000E+00  0.8000E+01  0.8000E+01
    -10.129  0.0000E+00  0.0000E+00  0.8000E+01  0.8000E+01
     -9.935  0.0000E+00  0.0000E+00  0.8000E+01  0.8000E+01
     -9.740  0.0000E+00  0.0000E+00  0.8000E+01  0.8000E+01
     -9.545  0.0000E+00  0.0000E+00  0.8000E+01  0.8000E+01
     -9.351  0.0000E+00  0.0000E+00  0.8000E+01  0.8000E+01
     -9.156  0.0000E+00  0.0000E+00  0.8000E+01  0.8000E+01
     -8.961  0.0000E+00  0.0000E+00  0.8000E+01  0.8000E+01
     -8.766  0.0000E+00  0.0000E+00  0.8000E+01  0.8000E+01
     -8.572  0.0000E+00  0.0000E+00  0.8000E+01  0.8000E+01
     -8.377  0.0000E+00  0.0000E+00  0.8000E+01  0.8000E+01
     -8.182  0.0000E+00  0.0000E+00  0.8000E+01  0.8000E+01
     -7.988  0.0000E+00  0.0000E+00  0.8000E+01  0.8000E+01
     -7.793  0.0000E+00  0.0000E+00  0.8000E+01  0.8000E+01
     -7.598  0.0000E+00  0.0000E+00  0.8000E+01  0.8000E+01
     -7.404  0.0000E+00  0.0000E+00  0.8000E+01  0.8000E+01
     -7.209  0.0000E+00  0.0000E+00  0.8000E+01  0.8000E+01
     -7.014  0.0000E+00  0.0000E+00  0.8000E+01  0.8000E+01
     -6.820  0.0000E+00  0.0000E+00  0.8000E+01  0.8000E+01
     -6.625  0.0000E+00  0.0000E+00  0.8000E+01  0.8000E+01
     -6.430  0.0000E+00  0.0000E+00  0.8000E+01  0.8000E+01
     -6.235  0.0000E+00  0.0000E+00  0.8000E+01  0.8000E+01
     -6.041  0.0000E+00  0.0000E+00  0.8000E+01  0.8000E+01
     -5.846  0.0000E+00  0.0000E+00  0.8000E+01  0.8000E+01
     -5.651  0.0000E+00  0.0000E+00  0.8000E+01  0.8000E+01
     -5.457  0.0000E+00  0.0000E+00  0.8000E+01  0.8000E+01
     -5.262  0.0000E+00  0.0000E+00  0.8000E+01  0.8000E+01
     -5.067  0.0000E+00  0.0000E+00  0.8000E+01  0.8000E+01
     -4.873  0.0000E+00  0.0000E+00  0.8000E+01  0.8000E+01
     -4.678  0.0000E+00  0.0000E+00  0.8000E+01  0.8000E+01
     -4.483  0.0000E+00  0.0000E+00  0.8000E+01  0.8000E+01
     -4.289  0.0000E+00  0.0000E+00  0.8000E+01  0.8000E+01
     -4.094  0.0000E+00  0.0000E+00  0.8000E+01  0.8000E+01
     -3.899  0.0000E+00  0.0000E+00  0.8000E+01  0.8000E+01
     -3.704  0.0000E+00  0.0000E+00  0.8000E+01  0.8000E+01
     -3.510  0.0000E+00  0.0000E+00  0.8000E+01  0.8000E+01
     -3.315  0.0000E+00  0.0000E+00  0.8000E+01  0.8000E+01
     -3.120  0.0000E+00  0.0000E+00  0.8000E+01  0.8000E+01
     -2.926  0.0000E+00  0.0000E+00  0.8000E+01  0.8000E+01
     -2.731  0.0000E+00  0.0000E+00  0.8000E+01  0.8000E+01
     -2.536  0.7403E-06  0.0000E+00  0.8000E+01  0.8000E+01
     -2.342  0.4066E-04  0.2226E-06  0.8000E+01  0.8000E+01
     -2.147  0.1800E-02  0.1756E-04  0.8000E+01  0.8000E+01
     -1.952  0.2801E-01  0.8208E-03  0.8006E+01  0.8000E+01
     -1.758  0.6638E-01  0.1802E-01  0.8019E+01  0.8004E+01
     -1.563  0.1167E+00  0.6067E-01  0.8042E+01  0.8015E+01
     -1.368  0.1119E+00  0.1095E+00  0.8063E+01  0.8037E+01
     -1.173  0.1669E+00  0.1059E+00  0.8096E+01  0.8057E+01
     -0.979  0.1857E+00  0.1641E+00  0.8132E+01  0.8090E+01
     -0.784  0.1592E+00  0.1779E+00  0.8163E+01  0.8124E+01
     -0.589  0.2679E+00  0.1561E+00  0.8216E+01  0.8155E+01
     -0.395  0.2240E+00  0.2529E+00  0.8259E+01  0.8204E+01
     -0.200  0.2461E+00  0.2367E+00  0.8307E+01  0.8251E+01
     -0.005  0.3248E+00  0.2274E+00  0.8371E+01  0.8295E+01
      0.189  0.3253E+00  0.3204E+00  0.8434E+01  0.8358E+01
      0.384  0.3636E+00  0.3209E+00  0.8505E+01  0.8421E+01
      0.579  0.3573E+00  0.3647E+00  0.8575E+01  0.8492E+01
      0.773  0.5144E+00  0.3467E+00  0.8676E+01  0.8560E+01
      0.968  0.5239E+00  0.4754E+00  0.8778E+01  0.8653E+01
      1.163  0.5410E+00  0.5569E+00  0.8883E+01  0.8761E+01
      1.358  0.8766E+00  0.5206E+00  0.9055E+01  0.8863E+01
      1.552  0.7568E+00  0.8080E+00  0.9202E+01  0.9021E+01
      1.747  0.8432E+00  0.9159E+00  0.9367E+01  0.9200E+01
      1.942  0.9321E+00  0.8705E+00  0.9549E+01  0.9370E+01
      2.136  0.1072E+01  0.1041E+01  0.9759E+01  0.9573E+01
      2.331  0.1316E+01  0.1087E+01  0.1002E+02  0.9786E+01
      2.526  0.2273E+01  0.1217E+01  0.1046E+02  0.1002E+02
      2.720  0.2456E+01  0.1835E+01  0.1094E+02  0.1038E+02
      2.915  0.2238E+01  0.2228E+01  0.1138E+02  0.1082E+02
      3.110  0.1322E+01  0.2386E+01  0.1164E+02  0.1128E+02
      3.304  0.1008E+01  0.1732E+01  0.1183E+02  0.1162E+02
      3.499  0.1087E+01  0.1106E+01  0.1205E+02  0.1184E+02
      3.694  0.1824E+01  0.1241E+01  0.1240E+02  0.1208E+02
      3.889  0.3061E+01  0.2185E+01  0.1300E+02  0.1251E+02
      4.083  0.2832E+01  0.3190E+01  0.1355E+02  0.1313E+02
      4.278  0.2843E+01  0.2858E+01  0.1411E+02  0.1369E+02
      4.473  0.2867E+01  0.3017E+01  0.1467E+02  0.1428E+02
      4.667  0.1912E+01  0.2713E+01  0.1504E+02  0.1481E+02
      4.862  0.1183E+01  0.1636E+01  0.1528E+02  0.1513E+02
      5.057  0.9365E+00  0.1051E+01  0.1546E+02  0.1534E+02
      5.251  0.7812E+00  0.8648E+00  0.1561E+02  0.1551E+02
      5.446  0.7215E+00  0.7898E+00  0.1575E+02  0.1566E+02
      5.641  0.5587E+00  0.6362E+00  0.1586E+02  0.1579E+02
      5.835  0.5010E+00  0.5416E+00  0.1596E+02  0.1589E+02
      6.030  0.1738E+00  0.4228E+00  0.1600E+02  0.1597E+02
      6.225  0.1425E-01  0.1200E+00  0.1600E+02  0.1600E+02
      6.420  0.0000E+00  0.6765E-02  0.1600E+02  0.1600E+02
      6.614  0.0000E+00  0.0000E+00  0.1600E+02  0.1600E+02
      6.809  0.0000E+00  0.0000E+00  0.1600E+02  0.1600E+02
      7.004  0.0000E+00  0.0000E+00  0.1600E+02  0.1600E+02
      7.198  0.0000E+00  0.0000E+00  0.1600E+02  0.1600E+02
      7.393  0.0000E+00  0.0000E+00  0.1600E+02  0.1600E+02
      7.588  0.0000E+00  0.0000E+00  0.1600E+02  0.1600E+02
      7.782  0.0000E+00  0.0000E+00  0.1600E+02  0.1600E+02
      7.977  0.0000E+00  0.0000E+00  0.1600E+02  0.1600E+02
      8.172  0.0000E+00  0.0000E+00  0.1600E+02  0.1600E+02
      8.366  0.0000E+00  0.0000E+00  0.1600E+02  0.1600E+02
      8.561  0.0000E+00  0.0000E+00  0.1600E+02  0.1600E+02
      8.756  0.0000E+00  0.0000E+00  0.1600E+02  0.1600E+02
      8.75582558    -49.65191101  301      2.86825952      1.00000000
    -49.652  0.0000E+00  0.0000E+00  0.0000E+00  0.0000E+00  0.0000E+00  0.0000E+00  0.0000E+00  0.0000E+00  0.0000E+00  0.0000E+00  0.0000E+00  0.0000E+00  0.0000E+00  0.0000E+00  0.0000E+00  0.0000E+00  0.0000E+00  0.0000E+00
    -49.457  0.0000E+00  0.0000E+00  0.0000E+00  0.0000E+00  0.0000E+00  0.0000E+00  0.0000E+00  0.0000E+00  0.0000E+00  0.0000E+00  0.0000E+00  0.0000E+00  0.0000E+00  0.0000E+00  0.0000E+00  0.0000E+00  0.0000E+00  0.0000E+00
    -49.263  0.0000E+00  0.0000E+00  0.0000E+00  0.0000E+00  0.0000E+00  0.0000E+00  0.0000E+00  0.0000E+00  0.0000E+00  0.0000E+00  0.0000E+00  0.0000E+00  0.0000E+00  0.0000E+00  0.0000E+00  0.0000E+00  0.0000E+00  0.0000E+00
    -49.068  0.0000E+00  0.0000E+00  0.0000E+00  0.0000E+00  0.0000E+00  0.0000E+00  0.0000E+00  0.0000E+00  0.0000E+00  0.0000E+00  0.0000E+00  0.0000E+00  0.0000E+00  0.0000E+00  0.0000E+00  0.0000E+00  0.0000E+00  0.0000E+00
    -48.873  0.0000E+00  0.0000E+00  0.0000E+00  0.0000E+00  0.0000E+00  0.0000E+00  0.0000E+00  0.0000E+00  0.0000E+00  0.0000E+00  0.0000E+00  0.0000E+00  0.0000E+00  0.0000E+00  0.0000E+00  0.0000E+00  0.0000E+00  0.0000E+00
    -48.678  0.0000E+00  0.0000E+00  0.0000E+00  0.0000E+00  0.0000E+00  0.0000E+00  0.0000E+00  0.0000E+00  0.0000E+00  0.0000E+00  0.0000E+00  0.0000E+00  0.0000E+00  0.0000E+00  0.0000E+00  0.0000E+00  0.0000E+00  0.0000E+00
    -48.484  0.0000E+00  0.0000E+00  0.0000E+00  0.0000E+00  0.0000E+00  0.0000E+00  0.0000E+00  0.0000E+00  0.0000E+00  0.0000E+00  0.0000E+00  0.0000E+00  0.0000E+00  0.0000E+00  0.0000E+00  0.0000E+00  0.0000E+00  0.0000E+00
    -48.289  0.0000E+00  0.0000E+00  0.0000E+00  0.0000E+00  0.0000E+00  0.0000E+00  0.0000E+00  0.0000E+00  0.0000E+00  0.0000E+00  0.0000E+00  0.0000E+00  0.0000E+00  0.0000E+00  0.0000E+00  0.0000E+00  0.0000E+00  0.0000E+00
    -48.094  0.0000E+00  0.0000E+00  0.0000E+00  0.0000E+00  0.0000E+00  0.0000E+00  0.0000E+00  0.0000E+00  0.0000E+00  0.0000E+00  0.0000E+00  0.0000E+00  0.0000E+00  0.0000E+00  0.0000E+00  0.0000E+00  0.0000E+00  0.0000E+00
    -47.900  0.0000E+00  0.0000E+00  0.0000E+00  0.0000E+00  0.0000E+00  0.0000E+00  0.0000E+00  0.0000E+00  0.0000E+00  0.0000E+00  0.0000E+00  0.0000E+00  0.0000E+00  0.0000E+00  0.0000E+00  0.0000E+00  0.0000E+00  0.0000E+00
    -47.705  0.0000E+00  0.0000E+00  0.0000E+00  0.0000E+00  0.0000E+00  0.0000E+00  0.0000E+00  0.0000E+00  0.0000E+00  0.0000E+00  0.0000E+00  0.0000E+00  0.0000E+00  0.0000E+00  0.0000E+00  0.0000E+00  0.0000E+00  0.0000E+00
    -47.510  0.9743E-04  0.0000E+00  0.4097E-10  0.0000E+00  0.6457E-10  0.0000E+00  0.4097E-10  0.0000E+00  0.1003E-10  0.0000E+00  0.1473E-10  0.0000E+00  0.1916E-10  0.0000E+00  0.1473E-10  0.0000E+00  0.1003E-10  0.0000E+00
    -47.316  0.4682E-02  0.4724E-03  0.1969E-08  0.1950E-09  0.3102E-08  0.3095E-09  0.1969E-08  0.1950E-09  0.4822E-09  0.4694E-10  0.7081E-09  0.7079E-10  0.9209E-09  0.1407E-09  0.7081E-09  0.7079E-10  0.4822E-09  0.4694E-10
    -47.121  0.2194E+00  0.2262E-01  0.9181E-07  0.9331E-08  0.1449E-06  0.1481E-07  0.9181E-07  0.9331E-08  0.2262E-07  0.2248E-08  0.3330E-07  0.3390E-08  0.4317E-07  0.6737E-08  0.3330E-07  0.3390E-08  0.2262E-07  0.2248E-08
    -46.926  0.3294E+01  0.9032E+00  0.1276E-05  0.3652E-06  0.2059E-05  0.5833E-06  0.1276E-05  0.3652E-06  0.3405E-06  0.9001E-07  0.5204E-06  0.1372E-06  0.6491E-06  0.2672E-06  0.5204E-06  0.1372E-06  0.3405E-06  0.9001E-07
    -46.732  0.1552E+01  0.3750E+01  0.5409E-06  0.1372E-05  0.8965E-06  0.2251E-05  0.5409E-06  0.1372E-05  0.1586E-06  0.3728E-06  0.2540E-06  0.5960E-06  0.3047E-06  0.1069E-05  0.2540E-06  0.5960E-06  0.1586E-06  0.3728E-06
    -46.537  0.0000E+00  0.4314E+00  0.0000E+00  0.1442E-06  0.0000E+00  0.2420E-06  0.0000E+00  0.1442E-06  0.0000E+00  0.4229E-07  0.0000E+00  0.7029E-07  0.0000E+00  0.1187E-06  0.0000E+00  0.7029E-07  0.0000E+00  0.4229E-07
    -46.342  0.0000E+00  0.0000E+00  0.0000E+00  0.0000E+00  0.0000E+00  0.0000E+00  0.0000E+00  0.0000E+00  0.0000E+00  0.0000E+00  0.0000E+00  0.0000E+00  0.0000E+00  0.0000E+00  0.0000E+00  0.0000E+00  0.0000E+00  0.0000E+00
    -46.147  0.0000E+00  0.0000E+00  0.0000E+00  0.0000E+00  0.0000E+00  0.0000E+00  0.0000E+00  0.0000E+00  0.0000E+00  0.0000E+00  0.0000E+00  0.0000E+00  0.0000E+00  0.0000E+00  0.0000E+00  0.0000E+00  0.0000E+00  0.0000E+00
    -45.953  0.0000E+00  0.0000E+00  0.0000E+00  0.0000E+00  0.0000E+00  0.0000E+00  0.0000E+00  0.0000E+00  0.0000E+00  0.0000E+00  0.0000E+00  0.0000E+00  0.0000E+00  0.0000E+00  0.0000E+00  0.0000E+00  0.0000E+00  0.0000E+00
    -45.758  0.0000E+00  0.0000E+00  0.0000E+00  0.0000E+00  0.0000E+00  0.0000E+00  0.0000E+00  0.0000E+00  0.0000E+00  0.0000E+00  0.0000E+00  0.0000E+00  0.0000E+00  0.0000E+00  0.0000E+00  0.0000E+00  0.0000E+00  0.0000E+00
    -45.563  0.0000E+00  0.0000E+00  0.0000E+00  0.0000E+00  0.0000E+00  0.0000E+00  0.0000E+00  0.0000E+00  0.0000E+00  0.0000E+00  0.0000E+00  0.0000E+00  0.0000E+00  0.0000E+00  0.0000E+00  0.0000E+00  0.0000E+00  0.0000E+00
    -45.369  0.0000E+00  0.0000E+00  0.0000E+00  0.0000E+00  0.0000E+00  0.0000E+00  0.0000E+00  0.0000E+00  0.0000E+00  0.0000E+00  0.0000E+00  0.0000E+00  0.0000E+00  0.0000E+00  0.0000E+00  0.0000E+00  0.0000E+00  0.0000E+00
    -45.174  0.0000E+00  0.0000E+00  0.0000E+00  0.0000E+00  0.0000E+00  0.0000E+00  0.0000E+00  0.0000E+00  0.0000E+00  0.0000E+00  0.0000E+00  0.0000E+00  0.0000E+00  0.0000E+00  0.0000E+00  0.0000E+00  0.0000E+00  0.0000E+00
    -44.979  0.0000E+00  0.0000E+00  0.0000E+00  0.0000E+00  0.0000E+00  0.0000E+00  0.0000E+00  0.0000E+00  0.0000E+00  0.0000E+00  0.0000E+00  0.0000E+00  0.0000E+00  0.0000E+00  0.0000E+00  0.0000E+00  0.0000E+00  0.0000E+00
    -44.785  0.0000E+00  0.0000E+00  0.0000E+00  0.0000E+00  0.0000E+00  0.0000E+00  0.0000E+00  0.0000E+00  0.0000E+00  0.0000E+00  0.0000E+00  0.0000E+00  0.0000E+00  0.0000E+00  0.0000E+00  0.0000E+00  0.0000E+00  0.0000E+00
    -44.590  0.0000E+00  0.0000E+00  0.0000E+00  0.0000E+00  0.0000E+00  0.0000E+00  0.0000E+00  0.0000E+00  0.0000E+00  0.0000E+00  0.0000E+00  0.0000E+00  0.0000E+00  0.0000E+00  0.0000E+00  0.0000E+00  0.0000E+00  0.0000E+00
    -44.395  0.0000E+00  0.0000E+00  0.0000E+00  0.0000E+00  0.0000E+00  0.0000E+00  0.0000E+00  0.0000E+00  0.0000E+00  0.0000E+00  0.0000E+00  0.0000E+00  0.0000E+00  0.0000E+00  0.0000E+00  0.0000E+00  0.0000E+00  0.0000E+00
    -44.201  0.0000E+00  0.0000E+00  0.0000E+00  0.0000E+00  0.0000E+00  0.0000E+00  0.0000E+00  0.0000E+00  0.0000E+00  0.0000E+00  0.0000E+00  0.0000E+00  0.0000E+00  0.0000E+00  0.0000E+00  0.0000E+00  0.0000E+00  0.0000E+00
    -44.006  0.0000E+00  0.0000E+00  0.0000E+00  0.0000E+00  0.0000E+00  0.0000E+00  0.0000E+00  0.0000E+00  0.0000E+00  0.0000E+00  0.0000E+00  0.0000E+00  0.0000E+00  0.0000E+00  0.0000E+00  0.0000E+00  0.0000E+00  0.0000E+00
    -43.811  0.0000E+00  0.0000E+00  0.0000E+00  0.0000E+00  0.0000E+00  0.0000E+00  0.0000E+00  0.0000E+00  0.0000E+00  0.0000E+00  0.0000E+00  0.0000E+00  0.0000E+00  0.0000E+00  0.0000E+00  0.0000E+00  0.0000E+00  0.0000E+00
    -43.616  0.0000E+00  0.0000E+00  0.0000E+00  0.0000E+00  0.0000E+00  0.0000E+00  0.0000E+00  0.0000E+00  0.0000E+00  0.0000E+00  0.0000E+00  0.0000E+00  0.0000E+00  0.0000E+00  0.0000E+00  0.0000E+00  0.0000E+00  0.0000E+00
    -43.422  0.0000E+00  0.0000E+00  0.0000E+00  0.0000E+00  0.0000E+00  0.0000E+00  0.0000E+00  0.0000E+00  0.0000E+00  0.0000E+00  0.0000E+00  0.0000E+00  0.0000E+00  0.0000E+00  0.0000E+00  0.0000E+00  0.0000E+00  0.0000E+00
    -43.227  0.0000E+00  0.0000E+00  0.0000E+00  0.0000E+00  0.0000E+00  0.0000E+00  0.0000E+00  0.0000E+00  0.0000E+00  0.0000E+00  0.0000E+00  0.0000E+00  0.0000E+00  0.0000E+00  0.0000E+00  0.0000E+00  0.0000E+00  0.0000E+00
    -43.032  0.0000E+00  0.0000E+00  0.0000E+00  0.0000E+00  0.0000E+00  0.0000E+00  0.0000E+00  0.0000E+00  0.0000E+00  0.0000E+00  0.0000E+00  0.0000E+00  0.0000E+00  0.0000E+00  0.0000E+00  0.0000E+00  0.0000E+00  0.0000E+00
    -42.838  0.0000E+00  0.0000E+00  0.0000E+00  0.0000E+00  0.0000E+00  0.0000E+00  0.0000E+00  0.0000E+00  0.0000E+00  0.0000E+00  0.0000E+00  0.0000E+00  0.0000E+00  0.0000E+00  0.0000E+00  0.0000E+00  0.0000E+00  0.0000E+00
    -42.643  0.0000E+00  0.0000E+00  0.0000E+00  0.0000E+00  0.0000E+00  0.0000E+00  0.0000E+00  0.0000E+00  0.0000E+00  0.0000E+00  0.0000E+00  0.0000E+00  0.0000E+00  0.0000E+00  0.0000E+00  0.0000E+00  0.0000E+00  0.0000E+00
    -42.448  0.0000E+00  0.0000E+00  0.0000E+00  0.0000E+00  0.0000E+00  0.0000E+00  0.0000E+00  0.0000E+00  0.0000E+00  0.0000E+00  0.0000E+00  0.0000E+00  0.0000E+00  0.0000E+00  0.0000E+00  0.0000E+00  0.0000E+00  0.0000E+00
    -42.254  0.0000E+00  0.0000E+00  0.0000E+00  0.0000E+00  0.0000E+00  0.0000E+00  0.0000E+00  0.0000E+00  0.0000E+00  0.0000E+00  0.0000E+00  0.0000E+00  0.0000E+00  0.0000E+00  0.0000E+00  0.0000E+00  0.0000E+00  0.0000E+00
    -42.059  0.0000E+00  0.0000E+00  0.0000E+00  0.0000E+00  0.0000E+00  0.0000E+00  0.0000E+00  0.0000E+00  0.0000E+00  0.0000E+00  0.0000E+00  0.0000E+00  0.0000E+00  0.0000E+00  0.0000E+00  0.0000E+00  0.0000E+00  0.0000E+00
    -41.864  0.0000E+00  0.0000E+00  0.0000E+00  0.0000E+00  0.0000E+00  0.0000E+00  0.0000E+00  0.0000E+00  0.0000E+00  0.0000E+00  0.0000E+00  0.0000E+00  0.0000E+00  0.0000E+00  0.0000E+00  0.0000E+00  0.0000E+00  0.0000E+00
    -41.670  0.0000E+00  0.0000E+00  0.0000E+00  0.0000E+00  0.0000E+00  0.0000E+00  0.0000E+00  0.0000E+00  0.0000E+00  0.0000E+00  0.0000E+00  0.0000E+00  0.0000E+00  0.0000E+00  0.0000E+00  0.0000E+00  0.0000E+00  0.0000E+00
    -41.475  0.0000E+00  0.0000E+00  0.0000E+00  0.0000E+00  0.0000E+00  0.0000E+00  0.0000E+00  0.0000E+00  0.0000E+00  0.0000E+00  0.0000E+00  0.0000E+00  0.0000E+00  0.0000E+00  0.0000E+00  0.0000E+00  0.0000E+00  0.0000E+00
    -41.280  0.0000E+00  0.0000E+00  0.0000E+00  0.0000E+00  0.0000E+00  0.0000E+00  0.0000E+00  0.0000E+00  0.0000E+00  0.0000E+00  0.0000E+00  0.0000E+00  0.0000E+00  0.0000E+00  0.0000E+00  0.0000E+00  0.0000E+00  0.0000E+00
    -41.085  0.0000E+00  0.0000E+00  0.0000E+00  0.0000E+00  0.0000E+00  0.0000E+00  0.0000E+00  0.0000E+00  0.0000E+00  0.0000E+00  0.0000E+00  0.0000E+00  0.0000E+00  0.0000E+00  0.0000E+00  0.0000E+00  0.0000E+00  0.0000E+00
    -40.891  0.0000E+00  0.0000E+00  0.0000E+00  0.0000E+00  0.0000E+00  0.0000E+00  0.0000E+00  0.0000E+00  0.0000E+00  0.0000E+00  0.0000E+00  0.0000E+00  0.0000E+00  0.0000E+00  0.0000E+00  0.0000E+00  0.0000E+00  0.0000E+00
    -40.696  0.0000E+00  0.0000E+00  0.0000E+00  0.0000E+00  0.0000E+00  0.0000E+00  0.0000E+00  0.0000E+00  0.0000E+00  0.0000E+00  0.0000E+00  0.0000E+00  0.0000E+00  0.0000E+00  0.0000E+00  0.0000E+00  0.0000E+00  0.0000E+00
    -40.501  0.0000E+00  0.0000E+00  0.0000E+00  0.0000E+00  0.0000E+00  0.0000E+00  0.0000E+00  0.0000E+00  0.0000E+00  0.0000E+00  0.0000E+00  0.0000E+00  0.0000E+00  0.0000E+00  0.0000E+00  0.0000E+00  0.0000E+00  0.0000E+00
    -40.307  0.0000E+00  0.0000E+00  0.0000E+00  0.0000E+00  0.0000E+00  0.0000E+00  0.0000E+00  0.0000E+00  0.0000E+00  0.0000E+00  0.0000E+00  0.0000E+00  0.0000E+00  0.0000E+00  0.0000E+00  0.0000E+00  0.0000E+00  0.0000E+00
    -40.112  0.0000E+00  0.0000E+00  0.0000E+00  0.0000E+00  0.0000E+00  0.0000E+00  0.0000E+00  0.0000E+00  0.0000E+00  0.0000E+00  0.0000E+00  0.0000E+00  0.0000E+00  0.0000E+00  0.0000E+00  0.0000E+00  0.0000E+00  0.0000E+00
    -39.917  0.0000E+00  0.0000E+00  0.0000E+00  0.0000E+00  0.0000E+00  0.0000E+00  0.0000E+00  0.0000E+00  0.0000E+00  0.0000E+00  0.0000E+00  0.0000E+00  0.0000E+00  0.0000E+00  0.0000E+00  0.0000E+00  0.0000E+00  0.0000E+00