   2   2   1   0
  0.2694605E+02  0.3419620E-09  0.3419619E-09  0.5321559E-09  0.5000000E-15
  1.000000000000000E-004
  CAR 
 unknown system                          
      9.29249095    -49.18637698  301      3.17364740      1.00000000
    -49.186  0.0000E+00  0.0000E+00  0.0000E+00  0.0000E+00
    -48.991  0.0000E+00  0.0000E+00  0.0000E+00  0.0000E+00
    -48.797  0.0000E+00  0.0000E+00  0.0000E+00  0.0000E+00
    -48.602  0.0000E+00  0.0000E+00  0.0000E+00  0.0000E+00
    -48.407  0.0000E+00  0.0000E+00  0.0000E+00  0.0000E+00
    -48.212  0.0000E+00  0.0000E+00  0.0000E+00  0.0000E+00
    -48.017  0.0000E+00  0.0000E+00  0.0000E+00  0.0000E+00
    -47.822  0.0000E+00  0.0000E+00  0.0000E+00  0.0000E+00
    -47.627  0.0000E+00  0.0000E+00  0.0000E+00  0.0000E+00
    -47.432  0.0000E+00  0.0000E+00  0.0000E+00  0.0000E+00
    -47.237  0.0000E+00  0.0000E+00  0.0000E+00  0.0000E+00
    -47.042  0.1623E-03  0.0000E+00  0.3165E-04  0.0000E+00
    -46.847  0.7840E-02  0.1026E-02  0.1560E-02  0.2000E-03
    -46.652  0.3715E+00  0.4933E-01  0.7397E-01  0.9816E-02
    -46.457  0.6250E+01  0.1937E+01  0.1292E+01  0.3874E+00
    -46.262  0.3516E+01  0.7445E+01  0.1978E+01  0.1839E+01
    -46.068  0.0000E+00  0.8092E+00  0.2000E+01  0.1996E+01
    -45.873  0.0000E+00  0.0000E+00  0.2000E+01  0.2000E+01
    -45.678  0.0000E+00  0.0000E+00  0.2000E+01  0.2000E+01
    -45.483  0.0000E+00  0.0000E+00  0.2000E+01  0.2000E+01
    -45.288  0.0000E+00  0.0000E+00  0.2000E+01  0.2000E+01
    -45.093  0.0000E+00  0.0000E+00  0.2000E+01  0.2000E+01
    -44.898  0.0000E+00  0.0000E+00  0.2000E+01  0.2000E+01
    -44.703  0.0000E+00  0.0000E+00  0.2000E+01  0.2000E+01
    -44.508  0.0000E+00  0.0000E+00  0.2000E+01  0.2000E+01
    -44.313  0.0000E+00  0.0000E+00  0.2000E+01  0.2000E+01
    -44.118  0.0000E+00  0.0000E+00  0.2000E+01  0.2000E+01
    -43.923  0.0000E+00  0.0000E+00  0.2000E+01  0.2000E+01
    -43.728  0.0000E+00  0.0000E+00  0.2000E+01  0.2000E+01
    -43.533  0.0000E+00  0.0000E+00  0.2000E+01  0.2000E+01
    -43.338  0.0000E+00  0.0000E+00  0.2000E+01  0.2000E+01
    -43.144  0.0000E+00  0.0000E+00  0.2000E+01  0.2000E+01
    -42.949  0.0000E+00  0.0000E+00  0.2000E+01  0.2000E+01
    -42.754  0.0000E+00  0.0000E+00  0.2000E+01  0.2000E+01
    -42.559  0.0000E+00  0.0000E+00  0.2000E+01  0.2000E+01
    -42.364  0.0000E+00  0.0000E+00  0.2000E+01  0.2000E+01
    -42.169  0.0000E+00  0.0000E+00  0.2000E+01  0.2000E+01
    -41.974  0.0000E+00  0.0000E+00  0.2000E+01  0.2000E+01
    -41.779  0.0000E+00  0.0000E+00  0.2000E+01  0.2000E+01
    -41.584  0.0000E+00  0.0000E+00  0.2000E+01  0.2000E+01
    -41.389  0.0000E+00  0.0000E+00  0.2000E+01  0.2000E+01
    -41.194  0.0000E+00  0.0000E+00  0.2000E+01  0.2000E+01
    -40.999  0.0000E+00  0.0000E+00  0.2000E+01  0.2000E+01
    -40.804  0.0000E+00  0.0000E+00  0.2000E+01  0.2000E+01
    -40.609  0.0000E+00  0.0000E+00  0.2000E+01  0.2000E+01
    -40.415  0.0000E+00  0.0000E+00  0.2000E+01  0.2000E+01
    -40.220  0.0000E+00  0.0000E+00  0.2000E+01  0.2000E+01
    -40.025  0.0000E+00  0.0000E+00  0.2000E+01  0.2000E+01
    -39.830  0.0000E+00  0.0000E+00  0.2000E+01  0.2000E+01
    -39.635  0.0000E+00  0.0000E+00  0.2000E+01  0.2000E+01
    -39.440  0.0000E+00  0.0000E+00  0.2000E+01  0.2000E+01
    -39.245  0.0000E+00  0.0000E+00  0.2000E+01  0.2000E+01
    -39.050  0.0000E+00  0.0000E+00  0.2000E+01  0.2000E+01
    -38.855  0.0000E+00  0.0000E+00  0.2000E+01  0.2000E+01
    -38.660  0.0000E+00  0.0000E+00  0.2000E+01  0.2000E+01
    -38.465  0.0000E+00  0.0000E+00  0.2000E+01  0.2000E+01
    -38.270  0.0000E+00  0.0000E+00  0.2000E+01  0.2000E+01
    -38.075  0.0000E+00  0.0000E+00  0.2000E+01  0.2000E+01
    -37.880  0.0000E+00  0.0000E+00  0.2000E+01  0.2000E+01
    -37.686  0.0000E+00  0.0000E+00  0.2000E+01  0.2000E+01
    -37.491  0.0000E+00  0.0000E+00  0.2000E+01  0.2000E+01
    -37.296  0.0000E+00  0.0000E+00  0.2000E+01  0.2000E+01
    -37.101  0.0000E+00  0.0000E+00  0.2000E+01  0.2000E+01
    -36.906  0.0000E+00  0.0000E+00  0.2000E+01  0.2000E+01
    -36.711  0.0000E+00  0.0000E+00  0.2000E+01  0.2000E+01
    -36.516  0.0000E+00  0.0000E+00  0.2000E+01  0.2000E+01
    -36.321  0.0000E+00  0.0000E+00  0.2000E+01  0.2000E+01
    -36.126  0.0000E+00  0.0000E+00  0.2000E+01  0.2000E+01
    -35.931  0.0000E+00  0.0000E+00  0.2000E+01  0.2000E+01
    -35.736  0.0000E+00  0.0000E+00  0.2000E+01  0.2000E+01
    -35.541  0.0000E+00  0.0000E+00  0.2000E+01  0.2000E+01
    -35.346  0.0000E+00  0.0000E+00  0.2000E+01  0.2000E+01
    -35.151  0.0000E+00  0.0000E+00  0.2000E+01  0.2000E+01
    -34.957  0.0000E+00  0.0000E+00  0.2000E+01  0.2000E+01
    -34.762  0.0000E+00  0.0000E+00  0.2000E+01  0.2000E+01
    -34.567  0.0000E+00  0.0000E+00  0.2000E+01  0.2000E+01
    -34.372  0.0000E+00  0.0000E+00  0.2000E+01  0.2000E+01
    -34.177  0.0000E+00  0.0000E+00  0.2000E+01  0.2000E+01
    -33.982  0.0000E+00  0.0000E+00  0.2000E+01  0.2000E+01
    -33.787  0.0000E+00  0.0000E+00  0.2000E+01  0.2000E+01
    -33.592  0.0000E+00  0.0000E+00  0.2000E+01  0.2000E+01
    -33.397  0.0000E+00  0.0000E+00  0.2000E+01  0.2000E+01
    -33.202  0.0000E+00  0.0000E+00  0.2000E+01  0.2000E+01
    -33.007  0.0000E+00  0.0000E+00  0.2000E+01  0.2000E+01
    -32.812  0.0000E+00  0.0000E+00  0.2000E+01  0.2000E+01
    -32.617  0.0000E+00  0.0000E+00  0.2000E+01  0.2000E+01
    -32.422  0.0000E+00  0.0000E+00  0.2000E+01  0.2000E+01
    -32.228  0.0000E+00  0.0000E+00  0.2000E+01  0.2000E+01
    -32.033  0.0000E+00  0.0000E+00  0.2000E+01  0.2000E+01
    -31.838  0.0000E+00  0.0000E+00  0.2000E+01  0.2000E+01
    -31.643  0.0000E+00  0.0000E+00  0.2000E+01  0.2000E+01
    -31.448  0.0000E+00  0.0000E+00  0.2000E+01  0.2000E+01
    -31.253  0.0000E+00  0.0000E+00  0.2000E+01  0.2000E+01
    -31.058  0.0000E+00  0.0000E+00  0.2000E+01  0.2000E+01
    -30.863  0.0000E+00  0.0000E+00  0.2000E+01  0.2000E+01
    -30.668  0.0000E+00  0.0000E+00  0.2000E+01  0.2000E+01
    -30.473  0.0000E+00  0.0000E+00  0.2000E+01  0.2000E+01
    -30.278  0.0000E+00  0.0000E+00  0.2000E+01  0.2000E+01
    -30.083  0.0000E+00  0.0000E+00  0.2000E+01  0.2000E+01
    -29.888  0.0000E+00  0.0000E+00  0.2000E+01  0.2000E+01
    -29.693  0.0000E+00  0.0000E+00  0.2000E+01  0.2000E+01
    -29.498  0.0000E+00  0.0000E+00  0.2000E+01  0.2000E+01
    -29.304  0.0000E+00  0.0000E+00  0.2000E+01  0.2000E+01
    -29.109  0.0000E+00  0.0000E+00  0.2000E+01  0.2000E+01
    -28.914  0.0000E+00  0.0000E+00  0.2000E+01  0.2000E+01
    -28.719  0.0000E+00  0.0000E+00  0.2000E+01  0.2000E+01
    -28.524  0.0000E+00  0.0000E+00  0.2000E+01  0.2000E+01
    -28.329  0.0000E+00  0.0000E+00  0.2000E+01  0.2000E+01
    -28.134  0.0000E+00  0.0000E+00  0.2000E+01  0.2000E+01
    -27.939  0.0000E+00  0.0000E+00  0.2000E+01  0.2000E+01
    -27.744  0.0000E+00  0.0000E+00  0.2000E+01  0.2000E+01
    -27.549  0.0000E+00  0.0000E+00  0.2000E+01  0.2000E+01
    -27.354  0.0000E+00  0.0000E+00  0.2000E+01  0.2000E+01
    -27.159  0.0000E+00  0.0000E+00  0.2000E+01  0.2000E+01
    -26.964  0.0000E+00  0.0000E+00  0.2000E+01  0.2000E+01
    -26.769  0.0000E+00  0.0000E+00  0.2000E+01  0.2000E+01
    -26.575  0.0000E+00  0.0000E+00  0.2000E+01  0.2000E+01
    -26.380  0.0000E+00  0.0000E+00  0.2000E+01  0.2000E+01
    -26.185  0.0000E+00  0.0000E+00  0.2000E+01  0.2000E+01
    -25.990  0.0000E+00  0.0000E+00  0.2000E+01  0.2000E+01
    -25.795  0.7443E-04  0.0000E+00  0.2000E+01  0.2000E+01
    -25.600  0.4945E-02  0.5936E-03  0.2001E+01  0.2000E+01
    -25.405  0.2366E+00  0.3079E-01  0.2047E+01  0.2006E+01
    -25.210  0.5738E+01  0.1298E+01  0.3166E+01  0.2259E+01
    -25.015  0.1785E+02  0.1210E+02  0.6646E+01  0.4618E+01
    -24.820  0.6664E+01  0.1565E+02  0.7954E+01  0.7668E+01
    -24.625  0.1081E+00  0.1607E+01  0.8000E+01  0.7993E+01
    -24.430  0.0000E+00  0.0000E+00  0.8000E+01  0.8000E+01
    -24.235  0.0000E+00  0.0000E+00  0.8000E+01  0.8000E+01
    -24.040  0.0000E+00  0.0000E+00  0.8000E+01  0.8000E+01
    -23.846  0.0000E+00  0.0000E+00  0.8000E+01  0.8000E+01
    -23.651  0.0000E+00  0.0000E+00  0.8000E+01  0.8000E+01
    -23.456  0.0000E+00  0.0000E+00  0.8000E+01  0.8000E+01
    -23.261  0.0000E+00  0.0000E+00  0.8000E+01  0.8000E+01
    -23.066  0.0000E+00  0.0000E+00  0.8000E+01  0.8000E+01
    -22.871  0.0000E+00  0.0000E+00  0.8000E+01  0.8000E+01
    -22.676  0.0000E+00  0.0000E+00  0.8000E+01  0.8000E+01
    -22.481  0.0000E+00  0.0000E+00  0.8000E+01  0.8000E+01
    -22.286  0.0000E+00  0.0000E+00  0.8000E+01  0.8000E+01
    -22.091  0.0000E+00  0.0000E+00  0.8000E+01  0.8000E+01
    -21.896  0.0000E+00  0.0000E+00  0.8000E+01  0.8000E+01
    -21.701  0.0000E+00  0.0000E+00  0.8000E+01  0.8000E+01
    -21.506  0.0000E+00  0.0000E+00  0.8000E+01  0.8000E+01
    -21.311  0.0000E+00  0.0000E+00  0.8000E+01  0.8000E+01
    -21.117  0.0000E+00  0.0000E+00  0.8000E+01  0.8000E+01
    -20.922  0.0000E+00  0.0000E+00  0.8000E+01  0.8000E+01
    -20.727  0.0000E+00  0.0000E+00  0.8000E+01  0.8000E+01
    -20.532  0.0000E+00  0.0000E+00  0.8000E+01  0.8000E+01
    -20.337  0.0000E+00  0.0000E+00  0.8000E+01  0.8000E+01
    -20.142  0.0000E+00  0.0000E+00  0.8000E+01  0.8000E+01
    -19.947  0.0000E+00  0.0000E+00  0.8000E+01  0.8000E+01
    -19.752  0.0000E+00  0.0000E+00  0.8000E+01  0.8000E+01
    -19.557  0.0000E+00  0.0000E+00  0.8000E+01  0.8000E+01
    -19.362  0.0000E+00  0.0000E+00  0.8000E+01  0.8000E+01
    -19.167  0.0000E+00  0.0000E+00  0.8000E+01  0.8000E+01
    -18.972  0.0000E+00  0.0000E+00  0.8000E+01  0.8000E+01
    -18.777  0.0000E+00  0.0000E+00  0.8000E+01  0.8000E+01
    -18.582  0.0000E+00  0.0000E+00  0.8000E+01  0.8000E+01
    -18.388  0.0000E+00  0.0000E+00  0.8000E+01  0.8000E+01
    -18.193  0.0000E+00  0.0000E+00  0.8000E+01  0.8000E+01
    -17.998  0.0000E+00  0.0000E+00  0.8000E+01  0.8000E+01
    -17.803  0.0000E+00  0.0000E+00  0.8000E+01  0.8000E+01
    -17.608  0.0000E+00  0.0000E+00  0.8000E+01  0.8000E+01
    -17.413  0.0000E+00  0.0000E+00  0.8000E+01  0.8000E+01
    -17.218  0.0000E+00  0.0000E+00  0.8000E+01  0.8000E+01
    -17.023  0.0000E+00  0.0000E+00  0.8000E+01  0.8000E+01
    -16.828  0.0000E+00  0.0000E+00  0.8000E+01  0.8000E+01
    -16.633  0.0000E+00  0.0000E+00  0.8000E+01  0.8000E+01
    -16.438  0.0000E+00  0.0000E+00  0.8000E+01  0.8000E+01
    -16.243  0.0000E+00  0.0000E+00  0.8000E+01  0.8000E+01
    -16.048  0.0000E+00  0.0000E+00  0.8000E+01  0.8000E+01
    -15.853  0.0000E+00  0.0000E+00  0.8000E+01  0.8000E+01
    -15.658  0.0000E+00  0.0000E+00  0.8000E+01  0.8000E+01
    -15.464  0.0000E+00  0.0000E+00  0.8000E+01  0.8000E+01
    -15.269  0.0000E+00  0.0000E+00  0.8000E+01  0.8000E+01
    -15.074  0.0000E+00  0.0000E+00  0.8000E+01  0.8000E+01
    -14.879  0.0000E+00  0.0000E+00  0.8000E+01  0.8000E+01
    -14.684  0.0000E+00  0.0000E+00  0.8000E+01  0.8000E+01
    -14.489  0.0000E+00  0.0000E+00  0.8000E+01  0.8000E+01
    -14.294  0.0000E+00  0.0000E+00  0.8000E+01  0.8000E+01
    -14.099  0.0000E+00  0.0000E+00  0.8000E+01  0.8000E+01
    -13.904  0.0000E+00  0.0000E+00  0.8000E+01  0.8000E+01
    -13.709  0.0000E+00  0.0000E+00  0.8000E+01  0.8000E+01
    -13.514  0.0000E+00  0.0000E+00  0.8000E+01  0.8000E+01
    -13.319  0.0000E+00  0.0000E+00  0.8000E+01  0.8000E+01
    -13.124  0.0000E+00  0.0000E+00  0.8000E+01  0.8000E+01
    -12.929  0.0000E+00  0.0000E+00  0.8000E+01  0.8000E+01
    -12.735  0.0000E+00  0.0000E+00  0.8000E+01  0.8000E+01
    -12.540  0.0000E+00  0.0000E+00  0.8000E+01  0.8000E+01
    -12.345  0.0000E+00  0.0000E+00  0.8000E+01  0.8000E+01
    -12.150  0.0000E+00  0.0000E+00  0.8000E+01  0.8000E+01
    -11.955  0.0000E+00  0.0000E+00  0.8000E+01  0.8000E+01
    -11.760  0.0000E+00  0.0000E+00  0.8000E+01  0.8000E+01
    -11.565  0.0000E+00  0.0000E+00  0.8000E+01  0.8000E+01
    -11.370  0.0000E+00  0.0000E+00  0.8000E+01  0.8000E+01
    -11.175  0.0000E+00  0.0000E+00  0.8000E+01  0.8000E+01
    -10.980  0.0000E+00  0.0000E+00  0.8000E+01  0.8000E+01
    -10.785  0.0000E+00  0.0000E+00  0.8000E+01  0.8000E+01
    -10.590  0.0000E+00  0.0000E+00  0.8000E+01  0.8000E+01
    -10.395  0.0000E+00  0.0000E+00  0.8000E+01  0.8000E+01
    -10.200  0.0000E+00  0.0000E+00  0.8000E+01  0.8000E+01
    -10.006  0.0000E+00  0.0000E+00  0.8000E+01  0.8000E+01
     -9.811  0.0000E+00  0.0000E+00  0.8000E+01  0.8000E+01
     -9.616  0.0000E+00  0.0000E+00  0.8000E+01  0.8000E+01
     -9.421  0.0000E+00  0.0000E+00  0.8000E+01  0.8000E+01
     -9.226  0.0000E+00  0.0000E+00  0.8000E+01  0.8000E+01
     -9.031  0.0000E+00  0.0000E+00  0.8000E+01  0.8000E+01
     -8.836  0.0000E+00  0.0000E+00  0.8000E+01  0.8000E+01
     -8.641  0.0000E+00  0.0000E+00  0.8000E+01  0.8000E+01
     -8.446  0.0000E+00  0.0000E+00  0.8000E+01  0.8000E+01
     -8.251  0.0000E+00  0.0000E+00  0.8000E+01  0.8000E+01
     -8.056  0.0000E+00  0.0000E+00  0.8000E+01  0.8000E+01
     -7.861  0.0000E+00  0.0000E+00  0.8000E+01  0.8000E+01
     -7.666  0.0000E+00  0.0000E+00  0.8000E+01  0.8000E+01
     -7.471  0.0000E+00  0.0000E+00  0.8000E+01  0.8000E+01
     -7.277  0.0000E+00  0.0000E+00  0.8000E+01  0.8000E+01
     -7.082  0.0000E+00  0.0000E+00  0.8000E+01  0.8000E+01
     -6.887  0.0000E+00  0.0000E+00  0.8000E+01  0.8000E+01
     -6.692  0.0000E+00  0.0000E+00  0.8000E+01  0.8000E+01
     -6.497  0.0000E+00  0.0000E+00  0.8000E+01  0.8000E+01
     -6.302  0.0000E+00  0.0000E+00  0.8000E+01  0.8000E+01
     -6.107  0.0000E+00  0.0000E+00  0.8000E+01  0.8000E+01
     -5.912  0.0000E+00  0.0000E+00  0.8000E+01  0.8000E+01
     -5.717  0.0000E+00  0.0000E+00  0.8000E+01  0.8000E+01
     -5.522  0.0000E+00  0.0000E+00  0.8000E+01  0.8000E+01
     -5.327  0.0000E+00  0.0000E+00  0.8000E+01  0.8000E+01
     -5.132  0.0000E+00  0.0000E+00  0.8000E+01  0.8000E+01
     -4.937  0.0000E+00  0.0000E+00  0.8000E+01  0.8000E+01
     -4.742  0.0000E+00  0.0000E+00  0.8000E+01  0.8000E+01
     -4.548  0.0000E+00  0.0000E+00  0.8000E+01  0.8000E+01
     -4.353  0.0000E+00  0.0000E+00  0.8000E+01  0.8000E+01
     -4.158  0.0000E+00  0.0000E+00  0.8000E+01  0.8000E+01
     -3.963  0.0000E+00  0.0000E+00  0.8000E+01  0.8000E+01
     -3.768  0.0000E+00  0.0000E+00  0.8000E+01  0.8000E+01
     -3.573  0.0000E+00  0.0000E+00  0.8000E+01  0.8000E+01
     -3.378  0.0000E+00  0.0000E+00  0.8000E+01  0.8000E+01
     -3.183  0.0000E+00  0.0000E+00  0.8000E+01  0.8000E+01
     -2.988  0.0000E+00  0.0000E+00  0.8000E+01  0.8000E+01
     -2.793  0.0000E+00  0.0000E+00  0.8000E+01  0.8000E+01
     -2.598  0.0000E+00  0.0000E+00  0.8000E+01  0.8000E+01
     -2.403  0.9939E-07  0.0000E+00  0.8000E+01  0.8000E+01
     -2.208  0.1078E-04  0.6500E-07  0.8000E+01  0.8000E+01
     -2.013  0.5109E-03  0.7050E-05  0.8000E+01  0.8000E+01
     -1.818  0.1285E-01  0.3382E-03  0.8003E+01  0.8000E+01
     -1.624  0.5482E-01  0.9712E-02  0.8013E+01  0.8002E+01
     -1.429  0.9387E-01  0.5169E-01  0.8032E+01  0.8012E+01
     -1.234  0.1026E+00  0.8640E-01  0.8052E+01  0.8029E+01
     -1.039  0.1433E+00  0.1060E+00  0.8080E+01  0.8050E+01
     -0.844  0.1566E+00  0.1354E+00  0.8110E+01  0.8076E+01
     -0.649  0.1688E+00  0.1559E+00  0.8143E+01  0.8106E+01
     -0.454  0.1923E+00  0.1743E+00  0.8181E+01  0.8141E+01
     -0.259  0.2586E+00  0.1779E+00  0.8231E+01  0.8175E+01
     -0.064  0.2049E+00  0.2639E+00  0.8272E+01  0.8227E+01
      0.131  0.2727E+00  0.2070E+00  0.8325E+01  0.8267E+01
      0.326  0.3106E+00  0.2619E+00  0.8386E+01  0.8319E+01
      0.521  0.3348E+00  0.3107E+00  0.8451E+01  0.8379E+01
      0.716  0.3506E+00  0.3349E+00  0.8520E+01  0.8445E+01
      0.911  0.3581E+00  0.3558E+00  0.8590E+01  0.8514E+01
      1.105  0.5604E+00  0.3479E+00  0.8699E+01  0.8582E+01
      1.300  0.5043E+00  0.5462E+00  0.8798E+01  0.8689E+01
      1.495  0.5957E+00  0.5262E+00  0.8914E+01  0.8792E+01
      1.690  0.9060E+00  0.5916E+00  0.9091E+01  0.8908E+01
      1.885  0.7838E+00  0.9001E+00  0.9245E+01  0.9084E+01
      2.080  0.8487E+00  0.9235E+00  0.9411E+01  0.9264E+01
      2.275  0.9758E+00  0.8791E+00  0.9602E+01  0.9436E+01
      2.470  0.1105E+01  0.1074E+01  0.9818E+01  0.9647E+01
      2.665  0.1511E+01  0.1087E+01  0.1011E+02  0.9859E+01
      2.860  0.2195E+01  0.1424E+01  0.1054E+02  0.1014E+02
      3.055  0.2216E+01  0.1850E+01  0.1098E+02  0.1050E+02
      3.250  0.2144E+01  0.2098E+01  0.1140E+02  0.1091E+02
      3.445  0.1263E+01  0.2243E+01  0.1164E+02  0.1135E+02
      3.640  0.9554E+00  0.1553E+01  0.1183E+02  0.1165E+02
      3.834  0.9889E+00  0.1011E+01  0.1203E+02  0.1185E+02
      4.029  0.1548E+01  0.1146E+01  0.1233E+02  0.1208E+02
      4.224  0.2777E+01  0.1936E+01  0.1287E+02  0.1245E+02
      4.419  0.2772E+01  0.2983E+01  0.1341E+02  0.1304E+02
      4.614  0.2603E+01  0.2730E+01  0.1392E+02  0.1357E+02
      4.809  0.2761E+01  0.2740E+01  0.1446E+02  0.1411E+02
      5.004  0.2207E+01  0.2805E+01  0.1489E+02  0.1466E+02
      5.199  0.1410E+01  0.1846E+01  0.1517E+02  0.1502E+02
      5.394  0.9230E+00  0.1133E+01  0.1535E+02  0.1524E+02
      5.589  0.7895E+00  0.9031E+00  0.1551E+02  0.1542E+02
      5.784  0.7302E+00  0.7170E+00  0.1565E+02  0.1556E+02
      5.979  0.6277E+00  0.7157E+00  0.1577E+02  0.1570E+02
      6.174  0.5063E+00  0.5522E+00  0.1587E+02  0.1581E+02
      6.369  0.4602E+00  0.4877E+00  0.1596E+02  0.1590E+02
      6.563  0.1653E+00  0.3727E+00  0.1600E+02  0.1598E+02
      6.758  0.1922E-01  0.1078E+00  0.1600E+02  0.1600E+02
      6.953  0.0000E+00  0.4919E-02  0.1600E+02  0.1600E+02
      7.148  0.0000E+00  0.0000E+00  0.1600E+02  0.1600E+02
      7.343  0.0000E+00  0.0000E+00  0.1600E+02  0.1600E+02
      7.538  0.0000E+00  0.0000E+00  0.1600E+02  0.1600E+02
      7.733  0.0000E+00  0.0000E+00  0.1600E+02  0.1600E+02
      7.928  0.0000E+00  0.0000E+00  0.1600E+02  0.1600E+02
      8.123  0.0000E+00  0.0000E+00  0.1600E+02  0.1600E+02
      8.318  0.0000E+00  0.0000E+00  0.1600E+02  0.1600E+02
      8.513  0.0000E+00  0.0000E+00  0.1600E+02  0.1600E+02
      8.708  0.0000E+00  0.0000E+00  0.1600E+02  0.1600E+02
      8.903  0.0000E+00  0.0000E+00  0.1600E+02  0.1600E+02
      9.098  0.0000E+00  0.0000E+00  0.1600E+02  0.1600E+02
      9.292  0.0000E+00  0.0000E+00  0.1600E+02  0.1600E+02
      9.29249095    -49.18637698  301      3.17364740      1.00000000
    -49.186  0.0000E+00  0.0000E+00  0.0000E+00  0.0000E+00  0.0000E+00  0.0000E+00  0.0000E+00  0.0000E+00  0.0000E+00  0.0000E+00  0.0000E+00  0.0000E+00  0.0000E+00  0.0000E+00  0.0000E+00  0.0000E+00  0.0000E+00  0.0000E+00
    -48.991  0.0000E+00  0.0000E+00  0.0000E+00  0.0000E+00  0.0000E+00  0.0000E+00  0.0000E+00  0.0000E+00  0.0000E+00  0.0000E+00  0.0000E+00  0.0000E+00  0.0000E+00  0.0000E+00  0.0000E+00  0.0000E+00  0.0000E+00  0.0000E+00
    -48.797  0.0000E+00  0.0000E+00  0.0000E+00  0.0000E+00  0.0000E+00  0.0000E+00  0.0000E+00  0.0000E+00  0.0000E+00  0.0000E+00  0.0000E+00  0.0000E+00  0.0000E+00  0.0000E+00  0.0000E+00  0.0000E+00  0.0000E+00  0.0000E+00
    -48.602  0.0000E+00  0.0000E+00  0.0000E+00  0.0000E+00  0.0000E+00  0.0000E+00  0.0000E+00  0.0000E+00  0.0000E+00  0.0000E+00  0.0000E+00  0.0000E+00  0.0000E+00  0.0000E+00  0.0000E+00  0.0000E+00  0.0000E+00  0.0000E+00
    -48.407  0.0000E+00  0.0000E+00  0.0000E+00  0.0000E+00  0.0000E+00  0.0000E+00  0.0000E+00  0.0000E+00  0.0000E+00  0.0000E+00  0.0000E+00  0.0000E+00  0.0000E+00  0.0000E+00  0.0000E+00  0.0000E+00  0.0000E+00  0.0000E+00
    -48.212  0.0000E+00  0.0000E+00  0.0000E+00  0.0000E+00  0.0000E+00  0.0000E+00  0.0000E+00  0.0000E+00  0.0000E+00  0.0000E+00  0.0000E+00  0.0000E+00  0.0000E+00  0.0000E+00  0.0000E+00  0.0000E+00  0.0000E+00  0.0000E+00
    -48.017  0.0000E+00  0.0000E+00  0.0000E+00  0.0000E+00  0.0000E+00  0.0000E+00  0.0000E+00  0.0000E+00  0.0000E+00  0.0000E+00  0.0000E+00  0.0000E+00  0.0000E+00  0.0000E+00  0.0000E+00  0.0000E+00  0.0000E+00  0.0000E+00
    -47.822  0.0000E+00  0.0000E+00  0.0000E+00  0.0000E+00  0.0000E+00  0.0000E+00  0.0000E+00  0.0000E+00  0.0000E+00  0.0000E+00  0.0000E+00  0.0000E+00  0.0000E+00  0.0000E+00  0.0000E+00  0.0000E+00  0.0000E+00  0.0000E+00
    -47.627  0.0000E+00  0.0000E+00  0.0000E+00  0.0000E+00  0.0000E+00  0.0000E+00  0.0000E+00  0.0000E+00  0.0000E+00  0.0000E+00  0.0000E+00  0.0000E+00  0.0000E+00  0.0000E+00  0.0000E+00  0.0000E+00  0.0000E+00  0.0000E+00
    -47.432  0.0000E+00  0.0000E+00  0.0000E+00  0.0000E+00  0.0000E+00  0.0000E+00  0.0000E+00  0.0000E+00  0.0000E+00  0.0000E+00  0.0000E+00  0.0000E+00  0.0000E+00  0.0000E+00  0.0000E+00  0.0000E+00  0.0000E+00  0.0000E+00
    -47.237  0.0000E+00  0.0000E+00  0.0000E+00  0.0000E+00  0.0000E+00  0.0000E+00  0.0000E+00  0.0000E+00  0.0000E+00  0.0000E+00  0.0000E+00  0.0000E+00  0.0000E+00  0.0000E+00  0.0000E+00  0.0000E+00  0.0000E+00  0.0000E+00
    -47.042  0.8086E-04  0.0000E+00  0.5929E-10  0.0000E+00  0.9186E-10  0.0000E+00  0.5929E-10  0.0000E+00  0.1379E-10  0.0000E+00  0.2011E-10  0.0000E+00  0.2574E-10  0.0000E+00  0.2011E-10  0.0000E+00  0.1379E-10  0.0000E+00
    -46.847  0.3905E-02  0.5110E-03  0.2863E-08  0.3685E-09  0.4436E-08  0.5744E-09  0.2863E-08  0.3685E-09  0.6659E-09  0.8581E-10  0.9711E-09  0.1257E-09  0.1243E-08  0.2303E-09  0.9711E-09  0.1257E-09  0.6659E-09  0.8581E-10
    -46.652  0.1850E+00  0.2457E-01  0.1349E-06  0.1771E-07  0.2094E-06  0.2761E-07  0.1349E-06  0.1771E-07  0.3160E-07  0.4127E-08  0.4621E-07  0.6048E-08  0.5890E-07  0.1107E-07  0.4621E-07  0.6048E-08  0.3160E-07  0.4127E-08
    -46.457  0.3113E+01  0.9647E+00  0.2069E-05  0.6762E-06  0.3297E-05  0.1063E-05  0.2069E-05  0.6762E-06  0.5351E-06  0.1630E-06  0.8204E-06  0.2424E-06  0.9879E-06  0.4310E-06  0.8204E-06  0.2424E-06  0.5351E-06  0.1630E-06
    -46.262  0.1752E+01  0.3709E+01  0.1014E-05  0.2282E-05  0.1673E-05  0.3716E-05  0.1014E-05  0.2282E-05  0.2958E-06  0.6250E-06  0.4822E-06  0.9895E-06  0.5476E-06  0.1583E-05  0.4822E-06  0.9895E-06  0.2958E-06  0.6250E-06
    -46.068  0.0000E+00  0.4032E+00  0.0000E+00  0.2212E-06  0.0000E+00  0.3701E-06  0.0000E+00  0.2212E-06  0.0000E+00  0.6649E-07  0.0000E+00  0.1105E-06  0.0000E+00  0.1646E-06  0.0000E+00  0.1105E-06  0.0000E+00  0.6649E-07
    -45.873  0.0000E+00  0.0000E+00  0.0000E+00  0.0000E+00  0.0000E+00  0.0000E+00  0.0000E+00  0.0000E+00  0.0000E+00  0.0000E+00  0.0000E+00  0.0000E+00  0.0000E+00  0.0000E+00  0.0000E+00  0.0000E+00  0.0000E+00  0.0000E+00
    -45.678  0.0000E+00  0.0000E+00  0.0000E+00  0.0000E+00  0.0000E+00  0.0000E+00  0.0000E+00  0.0000E+00  0.0000E+00  0.0000E+00  0.0000E+00  0.0000E+00  0.0000E+00  0.0000E+00  0.0000E+00  0.0000E+00  0.0000E+00  0.0000E+00
    -45.483  0.0000E+00  0.0000E+00  0.0000E+00  0.0000E+00  0.0000E+00  0.0000E+00  0.0000E+00  0.0000E+00  0.0000E+00  0.0000E+00  0.0000E+00  0.0000E+00  0.0000E+00  0.0000E+00  0.0000E+00  0.0000E+00  0.0000E+00  0.0000E+00
    -45.288  0.0000E+00  0.0000E+00  0.0000E+00  0.0000E+00  0.0000E+00  0.0000E+00  0.0000E+00  0.0000E+00  0.0000E+00  0.0000E+00  0.0000E+00  0.0000E+00  0.0000E+00  0.0000E+00  0.0000E+00  0.0000E+00  0.0000E+00  0.0000E+00
    -45.093  0.0000E+00  0.0000E+00  0.0000E+00  0.0000E+00  0.0000E+00  0.0000E+00  0.0000E+00  0.0000E+00  0.0000E+00  0.0000E+00  0.0000E+00  0.0000E+00  0.0000E+00  0.0000E+00  0.0000E+00  0.0000E+00  0.0000E+00  0.0000E+00
    -44.898  0.0000E+00  0.0000E+00  0.0000E+00  0.0000E+00  0.0000E+00  0.0000E+00  0.0000E+00  0.0000E+00  0.0000E+00  0.0000E+00  0.0000E+00  0.0000E+00  0.0000E+00  0.0000E+00  0.0000E+00  0.0000E+00  0.0000E+00  0.0000E+00
    -44.703  0.0000E+00  0.0000E+00  0.0000E+00  0.0000E+00  0.0000E+00  0.0000E+00  0.0000E+00  0.0000E+00  0.0000E+00  0.0000E+00  0.0000E+00  0.0000E+00  0.0000E+00  0.0000E+00  0.0000E+00  0.0000E+00  0.0000E+00  0.0000E+00
    -44.508  0.0000E+00  0.0000E+00  0.0000E+00  0.0000E+00  0.0000E+00  0.0000E+00  0.0000E+00  0.0000E+00  0.0000E+00  0.0000E+00  0.0000E+00  0.0000E+00  0.0000E+00  0.0000E+00  0.0000E+00  0.0000E+00  0.0000E+00  0.0000E+00
    -44.313  0.0000E+00  0.0000E+00  0.0000E+00  0.0000E+00  0.0000E+00  0.0000E+00  0.0000E+00  0.0000E+00  0.0000E+00  0.0000E+00  0.0000E+00  0.0000E+00  0.0000E+00  0.0000E+00  0.0000E+00  0.0000E+00  0.0000E+00  0.0000E+00
    -44.118  0.0000E+00  0.0000E+00  0.0000E+00  0.0000E+00  0.0000E+00  0.0000E+00  0.0000E+00  0.0000E+00  0.0000E+00  0.0000E+00  0.0000E+00  0.0000E+00  0.0000E+00  0.0000E+00  0.0000E+00  0.0000E+00  0.0000E+00  0.0000E+00
    -43.923  0.0000E+00  0.0000E+00  0.0000E+00  0.0000E+00  0.0000E+00  0.0000E+00  0.0000E+00  0.0000E+00  0.0000E+00  0.0000E+00  0.0000E+00  0.0000E+00  0.0000E+00  0.0000E+00  0.0000E+00  0.0000E+00  0.0000E+00  0.0000E+00
    -43.728  0.0000E+00  0.0000E+00  0.0000E+00  0.0000E+00  0.0000E+00  0.0000E+00  0.0000E+00  0.0000E+00  0.0000E+00  0.0000E+00  0.0000E+00  0.0000E+00  0.0000E+00  0.0000E+00  0.0000E+00  0.0000E+00  0.0000E+00  0.0000E+00
    -43.533  0.0000E+00  0.0000E+00  0.0000E+00  0.0000E+00  0.0000E+00  0.0000E+00  0.0000E+00  0.0000E+00  0.0000E+00  0.0000E+00  0.0000E+00  0.0000E+00  0.0000E+00  0.0000E+00  0.0000E+00  0.0000E+00  0.0000E+00  0.0000E+00
    -43.338  0.0000E+00  0.0000E+00  0.0000E+00  0.0000E+00  0.0000E+00  0.0000E+00  0.0000E+00  0.0000E+00  0.0000E+00  0.0000E+00  0.0000E+00  0.0000E+00  0.0000E+00  0.0000E+00  0.0000E+00  0.0000E+00  0.0000E+00  0.0000E+00
    -43.144  0.0000E+00  0.0000E+00  0.0000E+00  0.0000E+00  0.0000E+00  0.0000E+00  0.0000E+00  0.0000E+00  0.0000E+00  0.0000E+00  0.0000E+00  0.0000E+00  0.0000E+00  0.0000E+00  0.0000E+00  0.0000E+00  0.0000E+00  0.0000E+00
    -42.949  0.0000E+00  0.0000E+00  0.0000E+00  0.0000E+00  0.0000E+00  0.0000E+00  0.0000E+00  0.0000E+00  0.0000E+00  0.0000E+00  0.0000E+00  0.0000E+00  0.0000E+00  0.0000E+00  0.0000E+00  0.0000E+00  0.0000E+00  0.0000E+00
    -42.754  0.0000E+00  0.0000E+00  0.0000E+00  0.0000E+00  0.0000E+00  0.0000E+00  0.0000E+00  0.0000E+00  0.0000E+00  0.0000E+00  0.0000E+00  0.0000E+00  0.0000E+00  0.0000E+00  0.0000E+00  0.0000E+00  0.0000E+00  0.0000E+00
    -42.559  0.0000E+00  0.0000E+00  0.0000E+00  0.0000E+00  0.0000E+00  0.0000E+00  0.0000E+00  0.0000E+00  0.0000E+00  0.0000E+00  0.0000E+00  0.0000E+00  0.0000E+00  0.0000E+00  0.0000E+00  0.0000E+00  0.0000E+00  0.0000E+00
    -42.364  0.0000E+00  0.0000E+00  0.0000E+00  0.0000E+00  0.0000E+00  0.0000E+00  0.0000E+00  0.0000E+00  0.0000E+00  0.0000E+00  0.0000E+00  0.0000E+00  0.0000E+00  0.0000E+00  0.0000E+00  0.0000E+00  0.0000E+00  0.0000E+00
    -42.169  0.0000E+00  0.0000E+00  0.0000E+00  0.0000E+00  0.0000E+00  0.0000E+00  0.0000E+00  0.0000E+00  0.0000E+00  0.0000E+00  0.0000E+00  0.0000E+00  0.0000E+00  0.0000E+00  0.0000E+00  0.0000E+00  0.0000E+00  0.0000E+00
    -41.974  0.0000E+00  0.0000E+00  0.0000E+00  0.0000E+00  0.0000E+00  0.0000E+00  0.0000E+00  0.0000E+00  0.0000E+00  0.0000E+00  0.0000E+00  0.0000E+00  0.0000E+00  0.0000E+00  0.0000E+00  0.0000E+00  0.0000E+00  0.0000E+00
    -41.779  0.0000E+00  0.0000E+00  0.0000E+00  0.0000E+00  0.0000E+00  0.0000E+00  0.0000E+00  0.0000E+00  0.0000E+00  0.0000E+00  0.0000E+00  0.0000E+00  0.0000E+00  0.0000E+00  0.0000E+00  0.0000E+00  0.0000E+00  0.0000E+00
    -41.584  0.0000E+00  0.0000E+00  0.0000E+00  0.0000E+00  0.0000E+00  0.0000E+00  0.0000E+00  0.0000E+00  0.0000E+00  0.0000E+00  0.0000E+00  0.0000E+00  0.0000E+00  0.0000E+00  0.0000E+00  0.0000E+00  0.0000E+00  0.0000E+00
    -41.389  0.0000E+00  0.0000E+00  0.0000E+00  0.0000E+00  0.0000E+00  0.0000E+00  0.0000E+00  0.0000E+00  0.0000E+00  0.0000E+00  0.0000E+00  0.0000E+00  0.0000E+00  0.0000E+00  0.0000E+00  0.0000E+00  0.0000E+00  0.0000E+00
    -41.194  0.0000E+00  0.0000E+00  0.0000E+00  0.0000E+00  0.0000E+00  0.0000E+00  0.0000E+00  0.0000E+00  0.0000E+00  0.0000E+00  0.0000E+00  0.0000E+00  0.0000E+00  0.0000E+00  0.0000E+00  0.0000E+00  0.0000E+00  0.0000E+00
    -40.999  0.0000E+00  0.0000E+00  0.0000E+00  0.0000E+00  0.0000E+00  0.0000E+00  0.0000E+00  0.0000E+00  0.0000E+00  0.0000E+00  0.0000E+00  0.0000E+00  0.0000E+00  0.0000E+00  0.0000E+00  0.0000E+00  0.0000E+00  0.0000E+00
    -40.804  0.0000E+00  0.0000E+00  0.0000E+00  0.0000E+00  0.0000E+00  0.0000E+00  0.0000E+00  0.0000E+00  0.0000E+00  0.0000E+00  0.0000E+00  0.0000E+00  0.0000E+00  0.0000E+00  0.0000E+00  0.0000E+00  0.0000E+00  0.0000E+00
    -40.609  0.0000E+00  0.0000E+00  0.0000E+00  0.0000E+00  0.0000E+00  0.0000E+00  0.0000E+00  0.0000E+00  0.0000E+00  0.0000E+00  0.0000E+00  0.0000E+00  0.0000E+00  0.0000E+00  0.0000E+00  0.0000E+00  0.0000E+00  0.0000E+00
    -40.415  0.0000E+00  0.0000E+00  0.0000E+00  0.0000E+00  0.0000E+00  0.0000E+00  0.0000E+00  0.0000E+00  0.0000E+00  0.0000E+00  0.0000E+00  0.0000E+00  0.0000E+00  0.0000E+00  0.0000E+00  0.0000E+00  0.0000E+00  0.0000E+00
    -40.220  0.0000E+00  0.0000E+00  0.0000E+00  0.0000E+00  0.0000E+00  0.0000E+00  0.0000E+00  0.0000E+00  0.0000E+00  0.0000E+00  0.0000E+00  0.0000E+00  0.0000E+00  0.0000E+00  0.0000E+00  0.0000E+00  0.0000E+00  0.0000E+00
    -40.025  0.0000E+00  0.0000E+00  0.0000E+00  0.0000E+00  0.0000E+00  0.0000E+00  0.0000E+00  0.0000E+00  0.0000E+00  0.0000E+00  0.0000E+00  0.0000E+00  0.0000E+00  0.0000E+00  0.0000E+00  0.0000E+00  0.0000E+00  0.0000E+00
    -39.830  0.0000E+00  0.0000E+00  0.0000E+00  0.0000E+00  0.0000E+00  0.0000E+00  0.0000E+00  0.0000E+00  0.0000E+00  0.0000E+00  0.0000E+00  0.0000E+00  0.0000E+00  0.0000E+00  0.0000E+00  0.0000E+00  0.0000E+00  0.0000E+00
    -39.635  0.0000E+00  0.0000E+00  0.0000E+00  0.0000E+00  0.0000E+00  0.0000E+00  0.0000E+00  0.0000E+00  0.0000E+00  0.0000E+00  0.0000E+00  0.0000E+00  0.0000E+00  0.0000E+00  0.0000E+00  0.0000E+00  0.0000E+00  0.0000E+00
    -39.440  0.0000E+00  0.0000E+00  0.0000E+00  0.0000E+00  0.0000E+00  0.0000E+00  0.0000E+00  0.0000E+00  0.0000E+00  0.0000E+00  0.0000E+00  0.0000E+00  0.0000E+00  0.0000E+00  0.0000E+00  0.0000E+00  0.0000E+00  0.0000E+00