   2   2   1   0
  0.1920202E+02  0.3054417E-09  0.3054417E-09  0.4753237E-09  0.5000000E-15
  1.000000000000000E-004
  CAR 
 unknown system                          
     12.89044238    -46.23207168  301      5.29138128      1.00000000
    -46.232  0.0000E+00  0.0000E+00  0.0000E+00  0.0000E+00
    -46.035  0.0000E+00  0.0000E+00  0.0000E+00  0.0000E+00
    -45.838  0.0000E+00  0.0000E+00  0.0000E+00  0.0000E+00
    -45.641  0.0000E+00  0.0000E+00  0.0000E+00  0.0000E+00
    -45.444  0.0000E+00  0.0000E+00  0.0000E+00  0.0000E+00
    -45.247  0.0000E+00  0.0000E+00  0.0000E+00  0.0000E+00
    -45.050  0.0000E+00  0.0000E+00  0.0000E+00  0.0000E+00
    -44.853  0.0000E+00  0.0000E+00  0.0000E+00  0.0000E+00
    -44.655  0.0000E+00  0.0000E+00  0.0000E+00  0.0000E+00
    -44.458  0.0000E+00  0.0000E+00  0.0000E+00  0.0000E+00
    -44.261  0.0000E+00  0.0000E+00  0.0000E+00  0.0000E+00
    -44.064  0.9020E-05  0.7701E-05  0.1778E-05  0.1518E-05
    -43.867  0.1053E-02  0.9289E-03  0.2093E-03  0.1846E-03
    -43.670  0.5255E-01  0.4645E-01  0.1057E-01  0.9338E-02
    -43.473  0.1608E+01  0.1476E+01  0.3275E+00  0.3002E+00
    -43.276  0.6960E+01  0.6940E+01  0.1699E+01  0.1668E+01
    -43.079  0.1484E+01  0.1637E+01  0.1993E+01  0.1992E+01
    -42.882  0.0000E+00  0.0000E+00  0.2000E+01  0.2000E+01
    -42.685  0.0000E+00  0.0000E+00  0.2000E+01  0.2000E+01
    -42.488  0.0000E+00  0.0000E+00  0.2000E+01  0.2000E+01
    -42.291  0.0000E+00  0.0000E+00  0.2000E+01  0.2000E+01
    -42.093  0.0000E+00  0.0000E+00  0.2000E+01  0.2000E+01
    -41.896  0.0000E+00  0.0000E+00  0.2000E+01  0.2000E+01
    -41.699  0.0000E+00  0.0000E+00  0.2000E+01  0.2000E+01
    -41.502  0.0000E+00  0.0000E+00  0.2000E+01  0.2000E+01
    -41.305  0.0000E+00  0.0000E+00  0.2000E+01  0.2000E+01
    -41.108  0.0000E+00  0.0000E+00  0.2000E+01  0.2000E+01
    -40.911  0.0000E+00  0.0000E+00  0.2000E+01  0.2000E+01
    -40.714  0.0000E+00  0.0000E+00  0.2000E+01  0.2000E+01
    -40.517  0.0000E+00  0.0000E+00  0.2000E+01  0.2000E+01
    -40.320  0.0000E+00  0.0000E+00  0.2000E+01  0.2000E+01
    -40.123  0.0000E+00  0.0000E+00  0.2000E+01  0.2000E+01
    -39.926  0.0000E+00  0.0000E+00  0.2000E+01  0.2000E+01
    -39.729  0.0000E+00  0.0000E+00  0.2000E+01  0.2000E+01
    -39.532  0.0000E+00  0.0000E+00  0.2000E+01  0.2000E+01
    -39.334  0.0000E+00  0.0000E+00  0.2000E+01  0.2000E+01
    -39.137  0.0000E+00  0.0000E+00  0.2000E+01  0.2000E+01
    -38.940  0.0000E+00  0.0000E+00  0.2000E+01  0.2000E+01
    -38.743  0.0000E+00  0.0000E+00  0.2000E+01  0.2000E+01
    -38.546  0.0000E+00  0.0000E+00  0.2000E+01  0.2000E+01
    -38.349  0.0000E+00  0.0000E+00  0.2000E+01  0.2000E+01
    -38.152  0.0000E+00  0.0000E+00  0.2000E+01  0.2000E+01
    -37.955  0.0000E+00  0.0000E+00  0.2000E+01  0.2000E+01
    -37.758  0.0000E+00  0.0000E+00  0.2000E+01  0.2000E+01
    -37.561  0.0000E+00  0.0000E+00  0.2000E+01  0.2000E+01
    -37.364  0.0000E+00  0.0000E+00  0.2000E+01  0.2000E+01
    -37.167  0.0000E+00  0.0000E+00  0.2000E+01  0.2000E+01
    -36.970  0.0000E+00  0.0000E+00  0.2000E+01  0.2000E+01
    -36.772  0.0000E+00  0.0000E+00  0.2000E+01  0.2000E+01
    -36.575  0.0000E+00  0.0000E+00  0.2000E+01  0.2000E+01
    -36.378  0.0000E+00  0.0000E+00  0.2000E+01  0.2000E+01
    -36.181  0.0000E+00  0.0000E+00  0.2000E+01  0.2000E+01
    -35.984  0.0000E+00  0.0000E+00  0.2000E+01  0.2000E+01
    -35.787  0.0000E+00  0.0000E+00  0.2000E+01  0.2000E+01
    -35.590  0.0000E+00  0.0000E+00  0.2000E+01  0.2000E+01
    -35.393  0.0000E+00  0.0000E+00  0.2000E+01  0.2000E+01
    -35.196  0.0000E+00  0.0000E+00  0.2000E+01  0.2000E+01
    -34.999  0.0000E+00  0.0000E+00  0.2000E+01  0.2000E+01
    -34.802  0.0000E+00  0.0000E+00  0.2000E+01  0.2000E+01
    -34.605  0.0000E+00  0.0000E+00  0.2000E+01  0.2000E+01
    -34.408  0.0000E+00  0.0000E+00  0.2000E+01  0.2000E+01
    -34.210  0.0000E+00  0.0000E+00  0.2000E+01  0.2000E+01
    -34.013  0.0000E+00  0.0000E+00  0.2000E+01  0.2000E+01
    -33.816  0.0000E+00  0.0000E+00  0.2000E+01  0.2000E+01
    -33.619  0.0000E+00  0.0000E+00  0.2000E+01  0.2000E+01
    -33.422  0.0000E+00  0.0000E+00  0.2000E+01  0.2000E+01
    -33.225  0.0000E+00  0.0000E+00  0.2000E+01  0.2000E+01
    -33.028  0.0000E+00  0.0000E+00  0.2000E+01  0.2000E+01
    -32.831  0.0000E+00  0.0000E+00  0.2000E+01  0.2000E+01
    -32.634  0.0000E+00  0.0000E+00  0.2000E+01  0.2000E+01
    -32.437  0.0000E+00  0.0000E+00  0.2000E+01  0.2000E+01
    -32.240  0.0000E+00  0.0000E+00  0.2000E+01  0.2000E+01
    -32.043  0.0000E+00  0.0000E+00  0.2000E+01  0.2000E+01
    -31.846  0.0000E+00  0.0000E+00  0.2000E+01  0.2000E+01
    -31.649  0.0000E+00  0.0000E+00  0.2000E+01  0.2000E+01
    -31.451  0.0000E+00  0.0000E+00  0.2000E+01  0.2000E+01
    -31.254  0.0000E+00  0.0000E+00  0.2000E+01  0.2000E+01
    -31.057  0.0000E+00  0.0000E+00  0.2000E+01  0.2000E+01
    -30.860  0.0000E+00  0.0000E+00  0.2000E+01  0.2000E+01
    -30.663  0.0000E+00  0.0000E+00  0.2000E+01  0.2000E+01
    -30.466  0.0000E+00  0.0000E+00  0.2000E+01  0.2000E+01
    -30.269  0.0000E+00  0.0000E+00  0.2000E+01  0.2000E+01
    -30.072  0.0000E+00  0.0000E+00  0.2000E+01  0.2000E+01
    -29.875  0.0000E+00  0.0000E+00  0.2000E+01  0.2000E+01
    -29.678  0.0000E+00  0.0000E+00  0.2000E+01  0.2000E+01
    -29.481  0.0000E+00  0.0000E+00  0.2000E+01  0.2000E+01
    -29.284  0.0000E+00  0.0000E+00  0.2000E+01  0.2000E+01
    -29.087  0.0000E+00  0.0000E+00  0.2000E+01  0.2000E+01
    -28.889  0.0000E+00  0.0000E+00  0.2000E+01  0.2000E+01
    -28.692  0.0000E+00  0.0000E+00  0.2000E+01  0.2000E+01
    -28.495  0.0000E+00  0.0000E+00  0.2000E+01  0.2000E+01
    -28.298  0.0000E+00  0.0000E+00  0.2000E+01  0.2000E+01
    -28.101  0.0000E+00  0.0000E+00  0.2000E+01  0.2000E+01
    -27.904  0.0000E+00  0.0000E+00  0.2000E+01  0.2000E+01
    -27.707  0.0000E+00  0.0000E+00  0.2000E+01  0.2000E+01
    -27.510  0.0000E+00  0.0000E+00  0.2000E+01  0.2000E+01
    -27.313  0.0000E+00  0.0000E+00  0.2000E+01  0.2000E+01
    -27.116  0.0000E+00  0.0000E+00  0.2000E+01  0.2000E+01
    -26.919  0.0000E+00  0.0000E+00  0.2000E+01  0.2000E+01
    -26.722  0.0000E+00  0.0000E+00  0.2000E+01  0.2000E+01
    -26.525  0.0000E+00  0.0000E+00  0.2000E+01  0.2000E+01
    -26.327  0.0000E+00  0.0000E+00  0.2000E+01  0.2000E+01
    -26.130  0.0000E+00  0.0000E+00  0.2000E+01  0.2000E+01
    -25.933  0.0000E+00  0.0000E+00  0.2000E+01  0.2000E+01
    -25.736  0.0000E+00  0.0000E+00  0.2000E+01  0.2000E+01
    -25.539  0.0000E+00  0.0000E+00  0.2000E+01  0.2000E+01
    -25.342  0.0000E+00  0.0000E+00  0.2000E+01  0.2000E+01
    -25.145  0.0000E+00  0.0000E+00  0.2000E+01  0.2000E+01
    -24.948  0.0000E+00  0.0000E+00  0.2000E+01  0.2000E+01
    -24.751  0.0000E+00  0.0000E+00  0.2000E+01  0.2000E+01
    -24.554  0.0000E+00  0.0000E+00  0.2000E+01  0.2000E+01
    -24.357  0.0000E+00  0.0000E+00  0.2000E+01  0.2000E+01
    -24.160  0.0000E+00  0.0000E+00  0.2000E+01  0.2000E+01
    -23.963  0.0000E+00  0.0000E+00  0.2000E+01  0.2000E+01
    -23.766  0.0000E+00  0.0000E+00  0.2000E+01  0.2000E+01
    -23.568  0.0000E+00  0.0000E+00  0.2000E+01  0.2000E+01
    -23.371  0.0000E+00  0.0000E+00  0.2000E+01  0.2000E+01
    -23.174  0.2451E-05  0.1918E-05  0.2000E+01  0.2000E+01
    -22.977  0.4800E-03  0.4198E-03  0.2000E+01  0.2000E+01
    -22.780  0.2435E-01  0.2138E-01  0.2005E+01  0.2004E+01
    -22.583  0.8344E+00  0.7559E+00  0.2169E+01  0.2153E+01
    -22.386  0.4785E+01  0.4683E+01  0.3112E+01  0.3076E+01
    -22.189  0.4864E+01  0.4877E+01  0.4071E+01  0.4037E+01
    -21.992  0.6932E+01  0.6805E+01  0.5443E+01  0.5384E+01
    -21.795  0.9830E+01  0.9881E+01  0.7384E+01  0.7335E+01
    -21.598  0.2977E+01  0.3206E+01  0.7977E+01  0.7974E+01
    -21.401  0.6039E-01  0.7358E-01  0.8000E+01  0.8000E+01
    -21.204  0.0000E+00  0.0000E+00  0.8000E+01  0.8000E+01
    -21.006  0.0000E+00  0.0000E+00  0.8000E+01  0.8000E+01
    -20.809  0.0000E+00  0.0000E+00  0.8000E+01  0.8000E+01
    -20.612  0.0000E+00  0.0000E+00  0.8000E+01  0.8000E+01
    -20.415  0.0000E+00  0.0000E+00  0.8000E+01  0.8000E+01
    -20.218  0.0000E+00  0.0000E+00  0.8000E+01  0.8000E+01
    -20.021  0.0000E+00  0.0000E+00  0.8000E+01  0.8000E+01
    -19.824  0.0000E+00  0.0000E+00  0.8000E+01  0.8000E+01
    -19.627  0.0000E+00  0.0000E+00  0.8000E+01  0.8000E+01
    -19.430  0.0000E+00  0.0000E+00  0.8000E+01  0.8000E+01
    -19.233  0.0000E+00  0.0000E+00  0.8000E+01  0.8000E+01
    -19.036  0.0000E+00  0.0000E+00  0.8000E+01  0.8000E+01
    -18.839  0.0000E+00  0.0000E+00  0.8000E+01  0.8000E+01
    -18.642  0.0000E+00  0.0000E+00  0.8000E+01  0.8000E+01
    -18.444  0.0000E+00  0.0000E+00  0.8000E+01  0.8000E+01
    -18.247  0.0000E+00  0.0000E+00  0.8000E+01  0.8000E+01
    -18.050  0.0000E+00  0.0000E+00  0.8000E+01  0.8000E+01
    -17.853  0.0000E+00  0.0000E+00  0.8000E+01  0.8000E+01
    -17.656  0.0000E+00  0.0000E+00  0.8000E+01  0.8000E+01
    -17.459  0.0000E+00  0.0000E+00  0.8000E+01  0.8000E+01
    -17.262  0.0000E+00  0.0000E+00  0.8000E+01  0.8000E+01
    -17.065  0.0000E+00  0.0000E+00  0.8000E+01  0.8000E+01
    -16.868  0.0000E+00  0.0000E+00  0.8000E+01  0.8000E+01
    -16.671  0.0000E+00  0.0000E+00  0.8000E+01  0.8000E+01
    -16.474  0.0000E+00  0.0000E+00  0.8000E+01  0.8000E+01
    -16.277  0.0000E+00  0.0000E+00  0.8000E+01  0.8000E+01
    -16.080  0.0000E+00  0.0000E+00  0.8000E+01  0.8000E+01
    -15.883  0.0000E+00  0.0000E+00  0.8000E+01  0.8000E+01
    -15.685  0.0000E+00  0.0000E+00  0.8000E+01  0.8000E+01
    -15.488  0.0000E+00  0.0000E+00  0.8000E+01  0.8000E+01
    -15.291  0.0000E+00  0.0000E+00  0.8000E+01  0.8000E+01
    -15.094  0.0000E+00  0.0000E+00  0.8000E+01  0.8000E+01
    -14.897  0.0000E+00  0.0000E+00  0.8000E+01  0.8000E+01
    -14.700  0.0000E+00  0.0000E+00  0.8000E+01  0.8000E+01
    -14.503  0.0000E+00  0.0000E+00  0.8000E+01  0.8000E+01
    -14.306  0.0000E+00  0.0000E+00  0.8000E+01  0.8000E+01
    -14.109  0.0000E+00  0.0000E+00  0.8000E+01  0.8000E+01
    -13.912  0.0000E+00  0.0000E+00  0.8000E+01  0.8000E+01
    -13.715  0.0000E+00  0.0000E+00  0.8000E+01  0.8000E+01
    -13.518  0.0000E+00  0.0000E+00  0.8000E+01  0.8000E+01
    -13.321  0.0000E+00  0.0000E+00  0.8000E+01  0.8000E+01
    -13.123  0.0000E+00  0.0000E+00  0.8000E+01  0.8000E+01
    -12.926  0.0000E+00  0.0000E+00  0.8000E+01  0.8000E+01
    -12.729  0.0000E+00  0.0000E+00  0.8000E+01  0.8000E+01
    -12.532  0.0000E+00  0.0000E+00  0.8000E+01  0.8000E+01
    -12.335  0.0000E+00  0.0000E+00  0.8000E+01  0.8000E+01
    -12.138  0.0000E+00  0.0000E+00  0.8000E+01  0.8000E+01
    -11.941  0.0000E+00  0.0000E+00  0.8000E+01  0.8000E+01
    -11.744  0.0000E+00  0.0000E+00  0.8000E+01  0.8000E+01
    -11.547  0.0000E+00  0.0000E+00  0.8000E+01  0.8000E+01
    -11.350  0.0000E+00  0.0000E+00  0.8000E+01  0.8000E+01
    -11.153  0.0000E+00  0.0000E+00  0.8000E+01  0.8000E+01
    -10.956  0.0000E+00  0.0000E+00  0.8000E+01  0.8000E+01
    -10.759  0.0000E+00  0.0000E+00  0.8000E+01  0.8000E+01
    -10.561  0.0000E+00  0.0000E+00  0.8000E+01  0.8000E+01
    -10.364  0.0000E+00  0.0000E+00  0.8000E+01  0.8000E+01
    -10.167  0.0000E+00  0.0000E+00  0.8000E+01  0.8000E+01
     -9.970  0.0000E+00  0.0000E+00  0.8000E+01  0.8000E+01
     -9.773  0.0000E+00  0.0000E+00  0.8000E+01  0.8000E+01
     -9.576  0.0000E+00  0.0000E+00  0.8000E+01  0.8000E+01
     -9.379  0.0000E+00  0.0000E+00  0.8000E+01  0.8000E+01
     -9.182  0.0000E+00  0.0000E+00  0.8000E+01  0.8000E+01
     -8.985  0.0000E+00  0.0000E+00  0.8000E+01  0.8000E+01
     -8.788  0.0000E+00  0.0000E+00  0.8000E+01  0.8000E+01
     -8.591  0.0000E+00  0.0000E+00  0.8000E+01  0.8000E+01
     -8.394  0.0000E+00  0.0000E+00  0.8000E+01  0.8000E+01
     -8.197  0.0000E+00  0.0000E+00  0.8000E+01  0.8000E+01
     -8.000  0.0000E+00  0.0000E+00  0.8000E+01  0.8000E+01
     -7.802  0.0000E+00  0.0000E+00  0.8000E+01  0.8000E+01
     -7.605  0.0000E+00  0.0000E+00  0.8000E+01  0.8000E+01
     -7.408  0.0000E+00  0.0000E+00  0.8000E+01  0.8000E+01
     -7.211  0.0000E+00  0.0000E+00  0.8000E+01  0.8000E+01
     -7.014  0.0000E+00  0.0000E+00  0.8000E+01  0.8000E+01
     -6.817  0.0000E+00  0.0000E+00  0.8000E+01  0.8000E+01
     -6.620  0.0000E+00  0.0000E+00  0.8000E+01  0.8000E+01
     -6.423  0.0000E+00  0.0000E+00  0.8000E+01  0.8000E+01
     -6.226  0.0000E+00  0.0000E+00  0.8000E+01  0.8000E+01
     -6.029  0.0000E+00  0.0000E+00  0.8000E+01  0.8000E+01
     -5.832  0.0000E+00  0.0000E+00  0.8000E+01  0.8000E+01
     -5.635  0.0000E+00  0.0000E+00  0.8000E+01  0.8000E+01
     -5.438  0.0000E+00  0.0000E+00  0.8000E+01  0.8000E+01
     -5.240  0.0000E+00  0.0000E+00  0.8000E+01  0.8000E+01
     -5.043  0.0000E+00  0.0000E+00  0.8000E+01  0.8000E+01
     -4.846  0.0000E+00  0.0000E+00  0.8000E+01  0.8000E+01
     -4.649  0.0000E+00  0.0000E+00  0.8000E+01  0.8000E+01
     -4.452  0.0000E+00  0.0000E+00  0.8000E+01  0.8000E+01
     -4.255  0.0000E+00  0.0000E+00  0.8000E+01  0.8000E+01
     -4.058  0.0000E+00  0.0000E+00  0.8000E+01  0.8000E+01
     -3.861  0.0000E+00  0.0000E+00  0.8000E+01  0.8000E+01
     -3.664  0.0000E+00  0.0000E+00  0.8000E+01  0.8000E+01
     -3.467  0.0000E+00  0.0000E+00  0.8000E+01  0.8000E+01
     -3.270  0.0000E+00  0.0000E+00  0.8000E+01  0.8000E+01
     -3.073  0.0000E+00  0.0000E+00  0.8000E+01  0.8000E+01
     -2.876  0.0000E+00  0.0000E+00  0.8000E+01  0.8000E+01
     -2.678  0.0000E+00  0.0000E+00  0.8000E+01  0.8000E+01
     -2.481  0.0000E+00  0.0000E+00  0.8000E+01  0.8000E+01
     -2.284  0.0000E+00  0.0000E+00  0.8000E+01  0.8000E+01
     -2.087  0.0000E+00  0.0000E+00  0.8000E+01  0.8000E+01
     -1.890  0.0000E+00  0.0000E+00  0.8000E+01  0.8000E+01
     -1.693  0.0000E+00  0.0000E+00  0.8000E+01  0.8000E+01
     -1.496  0.0000E+00  0.0000E+00  0.8000E+01  0.8000E+01
     -1.299  0.0000E+00  0.0000E+00  0.8000E+01  0.8000E+01
     -1.102  0.0000E+00  0.0000E+00  0.8000E+01  0.8000E+01
     -0.905  0.0000E+00  0.0000E+00  0.8000E+01  0.8000E+01
     -0.708  0.1784E-06  0.1293E-06  0.8000E+01  0.8000E+01
     -0.511  0.1375E-04  0.9975E-05  0.8000E+01  0.8000E+01
     -0.314  0.6440E-03  0.4780E-03  0.8000E+01  0.8000E+01
     -0.117  0.1104E-01  0.9206E-02  0.8002E+01  0.8002E+01
      0.081  0.4367E-01  0.4172E-01  0.8011E+01  0.8010E+01
      0.278  0.4482E-01  0.4324E-01  0.8020E+01  0.8019E+01
      0.475  0.9638E-01  0.9499E-01  0.8039E+01  0.8038E+01
      0.672  0.6782E-01  0.6909E-01  0.8052E+01  0.8051E+01
      0.869  0.1085E+00  0.1022E+00  0.8074E+01  0.8071E+01
      1.066  0.1199E+00  0.1247E+00  0.8097E+01  0.8096E+01
      1.263  0.1538E+00  0.1474E+00  0.8128E+01  0.8125E+01
      1.460  0.1074E+00  0.1122E+00  0.8149E+01  0.8147E+01
      1.657  0.1672E+00  0.1567E+00  0.8182E+01  0.8179E+01
      1.854  0.2282E+00  0.2323E+00  0.8227E+01  0.8224E+01
      2.051  0.1806E+00  0.1852E+00  0.8263E+01  0.8261E+01
      2.248  0.2042E+00  0.1978E+00  0.8304E+01  0.8300E+01
      2.445  0.2690E+00  0.2653E+00  0.8357E+01  0.8352E+01
      2.643  0.3180E+00  0.3154E+00  0.8420E+01  0.8415E+01
      2.840  0.3740E+00  0.3700E+00  0.8494E+01  0.8488E+01
      3.037  0.3510E+00  0.3610E+00  0.8563E+01  0.8559E+01
      3.234  0.5924E+00  0.5386E+00  0.8680E+01  0.8666E+01
      3.431  0.9531E+00  0.9708E+00  0.8868E+01  0.8857E+01
      3.628  0.7862E+00  0.7907E+00  0.9025E+01  0.9014E+01
      3.825  0.9138E+00  0.8999E+00  0.9206E+01  0.9192E+01
      4.022  0.1093E+01  0.1090E+01  0.9422E+01  0.9408E+01
      4.219  0.1145E+01  0.1148E+01  0.9649E+01  0.9635E+01
      4.416  0.1314E+01  0.1299E+01  0.9908E+01  0.9892E+01
      4.613  0.1176E+01  0.1200E+01  0.1014E+02  0.1013E+02
      4.810  0.1002E+01  0.9822E+00  0.1034E+02  0.1032E+02
      5.007  0.1201E+01  0.1170E+01  0.1058E+02  0.1056E+02
      5.205  0.1511E+01  0.1511E+01  0.1088E+02  0.1085E+02
      5.402  0.1677E+01  0.1654E+01  0.1121E+02  0.1118E+02
      5.599  0.1621E+01  0.1655E+01  0.1153E+02  0.1151E+02
      5.796  0.9590E+00  0.1011E+01  0.1172E+02  0.1171E+02
      5.993  0.6910E+00  0.6984E+00  0.1186E+02  0.1185E+02
      6.190  0.6875E+00  0.6901E+00  0.1199E+02  0.1198E+02
      6.387  0.9483E+00  0.9191E+00  0.1218E+02  0.1217E+02
      6.584  0.1653E+01  0.1633E+01  0.1251E+02  0.1249E+02
      6.781  0.1879E+01  0.1862E+01  0.1288E+02  0.1286E+02
      6.978  0.1943E+01  0.1960E+01  0.1326E+02  0.1324E+02
      7.175  0.2045E+01  0.2030E+01  0.1367E+02  0.1365E+02
      7.372  0.2072E+01  0.2080E+01  0.1408E+02  0.1406E+02
      7.569  0.2125E+01  0.2139E+01  0.1450E+02  0.1448E+02
      7.766  0.1579E+01  0.1607E+01  0.1481E+02  0.1480E+02
      7.964  0.1175E+01  0.1189E+01  0.1504E+02  0.1503E+02
      8.161  0.7991E+00  0.8121E+00  0.1520E+02  0.1520E+02
      8.358  0.5925E+00  0.5975E+00  0.1532E+02  0.1531E+02
      8.555  0.5690E+00  0.5700E+00  0.1543E+02  0.1543E+02
      8.752  0.4633E+00  0.4683E+00  0.1552E+02  0.1552E+02
      8.949  0.4741E+00  0.4763E+00  0.1562E+02  0.1562E+02
      9.146  0.4451E+00  0.4452E+00  0.1571E+02  0.1570E+02
      9.343  0.3608E+00  0.3654E+00  0.1578E+02  0.1578E+02
      9.540  0.3299E+00  0.3250E+00  0.1584E+02  0.1584E+02
      9.737  0.2861E+00  0.2848E+00  0.1590E+02  0.1590E+02
      9.934  0.3277E+00  0.3362E+00  0.1597E+02  0.1596E+02
     10.131  0.1151E+00  0.1249E+00  0.1599E+02  0.1599E+02
     10.328  0.5716E-01  0.5802E-01  0.1600E+02  0.1600E+02
     10.526  0.2690E-02  0.2609E-02  0.1600E+02  0.1600E+02
     10.723  0.0000E+00  0.0000E+00  0.1600E+02  0.1600E+02
     10.920  0.0000E+00  0.0000E+00  0.1600E+02  0.1600E+02
     11.117  0.0000E+00  0.0000E+00  0.1600E+02  0.1600E+02
     11.314  0.0000E+00  0.0000E+00  0.1600E+02  0.1600E+02
     11.511  0.0000E+00  0.0000E+00  0.1600E+02  0.1600E+02
     11.708  0.0000E+00  0.0000E+00  0.1600E+02  0.1600E+02
     11.905  0.0000E+00  0.0000E+00  0.1600E+02  0.1600E+02
     12.102  0.0000E+00  0.0000E+00  0.1600E+02  0.1600E+02
     12.299  0.0000E+00  0.0000E+00  0.1600E+02  0.1600E+02
     12.496  0.0000E+00  0.0000E+00  0.1600E+02  0.1600E+02
     12.693  0.0000E+00  0.0000E+00  0.1600E+02  0.1600E+02
     12.890  0.0000E+00  0.0000E+00  0.1600E+02  0.1600E+02
     12.89044238    -46.23207168  301      5.29138128      1.00000000
    -46.232  0.0000E+00  0.0000E+00  0.0000E+00  0.0000E+00  0.0000E+00  0.0000E+00  0.0000E+00  0.0000E+00  0.0000E+00  0.0000E+00  0.0000E+00  0.0000E+00  0.0000E+00  0.0000E+00  0.0000E+00  0.0000E+00  0.0000E+00  0.0000E+00
    -46.035  0.0000E+00  0.0000E+00  0.0000E+00  0.0000E+00  0.0000E+00  0.0000E+00  0.0000E+00  0.0000E+00  0.0000E+00  0.0000E+00  0.0000E+00  0.0000E+00  0.0000E+00  0.0000E+00  0.0000E+00  0.0000E+00  0.0000E+00  0.0000E+00
    -45.838  0.0000E+00  0.0000E+00  0.0000E+00  0.0000E+00  0.0000E+00  0.0000E+00  0.0000E+00  0.0000E+00  0.0000E+00  0.0000E+00  0.0000E+00  0.0000E+00  0.0000E+00  0.0000E+00  0.0000E+00  0.0000E+00  0.0000E+00  0.0000E+00
    -45.641  0.0000E+00  0.0000E+00  0.0000E+00  0.0000E+00  0.0000E+00  0.0000E+00  0.0000E+00  0.0000E+00  0.0000E+00  0.0000E+00  0.0000E+00  0.0000E+00  0.0000E+00  0.0000E+00  0.0000E+00  0.0000E+00  0.0000E+00  0.0000E+00
    -45.444  0.0000E+00  0.0000E+00  0.0000E+00  0.0000E+00  0.0000E+00  0.0000E+00  0.0000E+00  0.0000E+00  0.0000E+00  0.0000E+00  0.0000E+00  0.0000E+00  0.0000E+00  0.0000E+00  0.0000E+00  0.0000E+00  0.0000E+00  0.0000E+00
    -45.247  0.0000E+00  0.0000E+00  0.0000E+00  0.0000E+00  0.0000E+00  0.0000E+00  0.0000E+00  0.0000E+00  0.0000E+00  0.0000E+00  0.0000E+00  0.0000E+00  0.0000E+00  0.0000E+00  0.0000E+00  0.0000E+00  0.0000E+00  0.0000E+00
    -45.050  0.0000E+00  0.0000E+00  0.0000E+00  0.0000E+00  0.0000E+00  0.0000E+00  0.0000E+00  0.0000E+00  0.0000E+00  0.0000E+00  0.0000E+00  0.0000E+00  0.0000E+00  0.0000E+00  0.0000E+00  0.0000E+00  0.0000E+00  0.0000E+00
    -44.853  0.0000E+00  0.0000E+00  0.0000E+00  0.0000E+00  0.0000E+00  0.0000E+00  0.0000E+00  0.0000E+00  0.0000E+00  0.0000E+00  0.0000E+00  0.0000E+00  0.0000E+00  0.0000E+00  0.0000E+00  0.0000E+00  0.0000E+00  0.0000E+00
    -44.655  0.0000E+00  0.0000E+00  0.0000E+00  0.0000E+00  0.0000E+00  0.0000E+00  0.0000E+00  0.0000E+00  0.0000E+00  0.0000E+00  0.0000E+00  0.0000E+00  0.0000E+00  0.0000E+00  0.0000E+00  0.0000E+00  0.0000E+00  0.0000E+00
    -44.458  0.0000E+00  0.0000E+00  0.0000E+00  0.0000E+00  0.0000E+00  0.0000E+00  0.0000E+00  0.0000E+00  0.0000E+00  0.0000E+00  0.0000E+00  0.0000E+00  0.0000E+00  0.0000E+00  0.0000E+00  0.0000E+00  0.0000E+00  0.0000E+00
    -44.261  0.0000E+00  0.0000E+00  0.0000E+00  0.0000E+00  0.0000E+00  0.0000E+00  0.0000E+00  0.0000E+00  0.0000E+00  0.0000E+00  0.0000E+00  0.0000E+00  0.0000E+00  0.0000E+00  0.0000E+00  0.0000E+00  0.0000E+00  0.0000E+00
    -44.064  0.4475E-05  0.3821E-05  0.7329E-10  0.6274E-10  0.9685E-10  0.7753E-10  0.7329E-10  0.6274E-10  0.3178E-11  0.2780E-11  0.2369E-11  0.1787E-11  0.1323E-10  0.1199E-10  0.2369E-11  0.1787E-11  0.3178E-11  0.2780E-11
    -43.867  0.5235E-03  0.4617E-03  0.9161E-08  0.8071E-08  0.1226E-07  0.1081E-07  0.9161E-08  0.8071E-08  0.1246E-08  0.1106E-08  0.1342E-08  0.1180E-08  0.2282E-08  0.2039E-08  0.1342E-08  0.1180E-08  0.1246E-08  0.1106E-08
    -43.670  0.2612E-01  0.2308E-01  0.4578E-06  0.4041E-06  0.6130E-06  0.5413E-06  0.4578E-06  0.4041E-06  0.6254E-07  0.5553E-07  0.6745E-07  0.5937E-07  0.1141E-06  0.1021E-06  0.6745E-07  0.5937E-07  0.6254E-07  0.5553E-07
    -43.473  0.7999E+00  0.7340E+00  0.1373E-04  0.1266E-04  0.1895E-04  0.1743E-04  0.1373E-04  0.1266E-04  0.2386E-05  0.2176E-05  0.2761E-05  0.2485E-05  0.3872E-05  0.3569E-05  0.2761E-05  0.2485E-05  0.2386E-05  0.2176E-05
    -43.276  0.3466E+01  0.3457E+01  0.3824E-04  0.3873E-04  0.5967E-04  0.6024E-04  0.3824E-04  0.3873E-04  0.1158E-04  0.1165E-04  0.1737E-04  0.1725E-04  0.1826E-04  0.1837E-04  0.1737E-04  0.1725E-04  0.1158E-04  0.1165E-04
    -43.079  0.7397E+00  0.8160E+00  0.5216E-05  0.5793E-05  0.8754E-05  0.9722E-05  0.5216E-05  0.5793E-05  0.2108E-05  0.2349E-05  0.3738E-05  0.4135E-05  0.3578E-05  0.3986E-05  0.3738E-05  0.4135E-05  0.2108E-05  0.2349E-05
    -42.882  0.0000E+00  0.0000E+00  0.0000E+00  0.0000E+00  0.0000E+00  0.0000E+00  0.0000E+00  0.0000E+00  0.0000E+00  0.0000E+00  0.0000E+00  0.0000E+00  0.0000E+00  0.0000E+00  0.0000E+00  0.0000E+00  0.0000E+00  0.0000E+00
    -42.685  0.0000E+00  0.0000E+00  0.0000E+00  0.0000E+00  0.0000E+00  0.0000E+00  0.0000E+00  0.0000E+00  0.0000E+00  0.0000E+00  0.0000E+00  0.0000E+00  0.0000E+00  0.0000E+00  0.0000E+00  0.0000E+00  0.0000E+00  0.0000E+00
    -42.488  0.0000E+00  0.0000E+00  0.0000E+00  0.0000E+00  0.0000E+00  0.0000E+00  0.0000E+00  0.0000E+00  0.0000E+00  0.0000E+00  0.0000E+00  0.0000E+00  0.0000E+00  0.0000E+00  0.0000E+00  0.0000E+00  0.0000E+00  0.0000E+00
    -42.291  0.0000E+00  0.0000E+00  0.0000E+00  0.0000E+00  0.0000E+00  0.0000E+00  0.0000E+00  0.0000E+00  0.0000E+00  0.0000E+00  0.0000E+00  0.0000E+00  0.0000E+00  0.0000E+00  0.0000E+00  0.0000E+00  0.0000E+00  0.0000E+00
    -42.093  0.0000E+00  0.0000E+00  0.0000E+00  0.0000E+00  0.0000E+00  0.0000E+00  0.0000E+00  0.0000E+00  0.0000E+00  0.0000E+00  0.0000E+00  0.0000E+00  0.0000E+00  0.0000E+00  0.0000E+00  0.0000E+00  0.0000E+00  0.0000E+00
    -41.896  0.0000E+00  0.0000E+00  0.0000E+00  0.0000E+00  0.0000E+00  0.0000E+00  0.0000E+00  0.0000E+00  0.0000E+00  0.0000E+00  0.0000E+00  0.0000E+00  0.0000E+00  0.0000E+00  0.0000E+00  0.0000E+00  0.0000E+00  0.0000E+00
    -41.699  0.0000E+00  0.0000E+00  0.0000E+00  0.0000E+00  0.0000E+00  0.0000E+00  0.0000E+00  0.0000E+00  0.0000E+00  0.0000E+00  0.0000E+00  0.0000E+00  0.0000E+00  0.0000E+00  0.0000E+00  0.0000E+00  0.0000E+00  0.0000E+00
    -41.502  0.0000E+00  0.0000E+00  0.0000E+00  0.0000E+00  0.0000E+00  0.0000E+00  0.0000E+00  0.0000E+00  0.0000E+00  0.0000E+00  0.0000E+00  0.0000E+00  0.0000E+00  0.0000E+00  0.0000E+00  0.0000E+00  0.0000E+00  0.0000E+00
    -41.305  0.0000E+00  0.0000E+00  0.0000E+00  0.0000E+00  0.0000E+00  0.0000E+00  0.0000E+00  0.0000E+00  0.0000E+00  0.0000E+00  0.0000E+00  0.0000E+00  0.0000E+00  0.0000E+00  0.0000E+00  0.0000E+00  0.0000E+00  0.0000E+00
    -41.108  0.0000E+00  0.0000E+00  0.0000E+00  0.0000E+00  0.0000E+00  0.0000E+00  0.0000E+00  0.0000E+00  0.0000E+00  0.0000E+00  0.0000E+00  0.0000E+00  0.0000E+00  0.0000E+00  0.0000E+00  0.0000E+00  0.0000E+00  0.0000E+00
    -40.911  0.0000E+00  0.0000E+00  0.0000E+00  0.0000E+00  0.0000E+00  0.0000E+00  0.0000E+00  0.0000E+00  0.0000E+00  0.0000E+00  0.0000E+00  0.0000E+00  0.0000E+00  0.0000E+00  0.0000E+00  0.0000E+00  0.0000E+00  0.0000E+00
    -40.714  0.0000E+00  0.0000E+00  0.0000E+00  0.0000E+00  0.0000E+00  0.0000E+00  0.0000E+00  0.0000E+00  0.0000E+00  0.0000E+00  0.0000E+00  0.0000E+00  0.0000E+00  0.0000E+00  0.0000E+00  0.0000E+00  0.0000E+00  0.0000E+00
    -40.517  0.0000E+00  0.0000E+00  0.0000E+00  0.0000E+00  0.0000E+00  0.0000E+00  0.0000E+00  0.0000E+00  0.0000E+00  0.0000E+00  0.0000E+00  0.0000E+00  0.0000E+00  0.0000E+00  0.0000E+00  0.0000E+00  0.0000E+00  0.0000E+00
    -40.320  0.0000E+00  0.0000E+00  0.0000E+00  0.0000E+00  0.0000E+00  0.0000E+00  0.0000E+00  0.0000E+00  0.0000E+00  0.0000E+00  0.0000E+00  0.0000E+00  0.0000E+00  0.0000E+00  0.0000E+00  0.0000E+00  0.0000E+00  0.0000E+00
    -40.123  0.0000E+00  0.0000E+00  0.0000E+00  0.0000E+00  0.0000E+00  0.0000E+00  0.0000E+00  0.0000E+00  0.0000E+00  0.0000E+00  0.0000E+00  0.0000E+00  0.0000E+00  0.0000E+00  0.0000E+00  0.0000E+00  0.0000E+00  0.0000E+00
    -39.926  0.0000E+00  0.0000E+00  0.0000E+00  0.0000E+00  0.0000E+00  0.0000E+00  0.0000E+00  0.0000E+00  0.0000E+00  0.0000E+00  0.0000E+00  0.0000E+00  0.0000E+00  0.0000E+00  0.0000E+00  0.0000E+00  0.0000E+00  0.0000E+00
    -39.729  0.0000E+00  0.0000E+00  0.0000E+00  0.0000E+00  0.0000E+00  0.0000E+00  0.0000E+00  0.0000E+00  0.0000E+00  0.0000E+00  0.0000E+00  0.0000E+00  0.0000E+00  0.0000E+00  0.0000E+00  0.0000E+00  0.0000E+00  0.0000E+00
    -39.532  0.0000E+00  0.0000E+00  0.0000E+00  0.0000E+00  0.0000E+00  0.0000E+00  0.0000E+00  0.0000E+00  0.0000E+00  0.0000E+00  0.0000E+00  0.0000E+00  0.0000E+00  0.0000E+00  0.0000E+00  0.0000E+00  0.0000E+00  0.0000E+00
    -39.334  0.0000E+00  0.0000E+00  0.0000E+00  0.0000E+00  0.0000E+00  0.0000E+00  0.0000E+00  0.0000E+00  0.0000E+00  0.0000E+00  0.0000E+00  0.0000E+00  0.0000E+00  0.0000E+00  0.0000E+00  0.0000E+00  0.0000E+00  0.0000E+00
    -39.137  0.0000E+00  0.0000E+00  0.0000E+00  0.0000E+00  0.0000E+00  0.0000E+00  0.0000E+00  0.0000E+00  0.0000E+00  0.0000E+00  0.0000E+00  0.0000E+00  0.0000E+00  0.0000E+00  0.0000E+00  0.0000E+00  0.0000E+00  0.0000E+00
    -38.940  0.0000E+00  0.0000E+00  0.0000E+00  0.0000E+00  0.0000E+00  0.0000E+00  0.0000E+00  0.0000E+00  0.0000E+00  0.0000E+00  0.0000E+00  0.0000E+00  0.0000E+00  0.0000E+00  0.0000E+00  0.0000E+00  0.0000E+00  0.0000E+00
    -38.743  0.0000E+00  0.0000E+00  0.0000E+00  0.0000E+00  0.0000E+00  0.0000E+00  0.0000E+00  0.0000E+00  0.0000E+00  0.0000E+00  0.0000E+00  0.0000E+00  0.0000E+00  0.0000E+00  0.0000E+00  0.0000E+00  0.0000E+00  0.0000E+00
    -38.546  0.0000E+00  0.0000E+00  0.0000E+00  0.0000E+00  0.0000E+00  0.0000E+00  0.0000E+00  0.0000E+00  0.0000E+00  0.0000E+00  0.0000E+00  0.0000E+00  0.0000E+00  0.0000E+00  0.0000E+00  0.0000E+00  0.0000E+00  0.0000E+00
    -38.349  0.0000E+00  0.0000E+00  0.0000E+00  0.0000E+00  0.0000E+00  0.0000E+00  0.0000E+00  0.0000E+00  0.0000E+00  0.0000E+00  0.0000E+00  0.0000E+00  0.0000E+00  0.0000E+00  0.0000E+00  0.0000E+00  0.0000E+00  0.0000E+00
    -38.152  0.0000E+00  0.0000E+00  0.0000E+00  0.0000E+00  0.0000E+00  0.0000E+00  0.0000E+00  0.0000E+00  0.0000E+00  0.0000E+00  0.0000E+00  0.0000E+00  0.0000E+00  0.0000E+00  0.0000E+00  0.0000E+00  0.0000E+00  0.0000E+00
    -37.955  0.0000E+00  0.0000E+00  0.0000E+00  0.0000E+00  0.0000E+00  0.0000E+00  0.0000E+00  0.0000E+00  0.0000E+00  0.0000E+00  0.0000E+00  0.0000E+00  0.0000E+00  0.0000E+00  0.0000E+00  0.0000E+00  0.0000E+00  0.0000E+00
    -37.758  0.0000E+00  0.0000E+00  0.0000E+00  0.0000E+00  0.0000E+00  0.0000E+00  0.0000E+00  0.0000E+00  0.0000E+00  0.0000E+00  0.0000E+00  0.0000E+00  0.0000E+00  0.0000E+00  0.0000E+00  0.0000E+00  0.0000E+00  0.0000E+00
    -37.561  0.0000E+00  0.0000E+00  0.0000E+00  0.0000E+00  0.0000E+00  0.0000E+00  0.0000E+00  0.0000E+00  0.0000E+00  0.0000E+00  0.0000E+00  0.0000E+00  0.0000E+00  0.0000E+00  0.0000E+00  0.0000E+00  0.0000E+00  0.0000E+00
    -37.364  0.0000E+00  0.0000E+00  0.0000E+00  0.0000E+00  0.0000E+00  0.0000E+00  0.0000E+00  0.0000E+00  0.0000E+00  0.0000E+00  0.0000E+00  0.0000E+00  0.0000E+00  0.0000E+00  0.0000E+00  0.0000E+00  0.0000E+00  0.0000E+00
    -37.167  0.0000E+00  0.0000E+00  0.0000E+00  0.0000E+00  0.0000E+00  0.0000E+00  0.0000E+00  0.0000E+00  0.0000E+00  0.0000E+00  0.0000E+00  0.0000E+00  0.0000E+00  0.0000E+00  0.0000E+00  0.0000E+00  0.0000E+00  0.0000E+00
    -36.970  0.0000E+00  0.0000E+00  0.0000E+00  0.0000E+00  0.0000E+00  0.0000E+00  0.0000E+00  0.0000E+00  0.0000E+00  0.0000E+00  0.0000E+00  0.0000E+00  0.0000E+00  0.0000E+00  0.0000E+00  0.0000E+00  0.0000E+00  0.0000E+00
    -36.772  0.0000E+00  0.0000E+00  0.0000E+00  0.0000E+00  0.0000E+00  0.0000E+00  0.0000E+00  0.0000E+00  0.0000E+00  0.0000E+00  0.0000E+00  0.0000E+00  0.0000E+00  0.0000E+00  0.0000E+00  0.0000E+00  0.0000E+00  0.0000E+00
    -36.575  0.0000E+00  0.0000E+00  0.0000E+00  0.0000E+00  0.0000E+00  0.0000E+00  0.0000E+00  0.0000E+00  0.0000E+00  0.0000E+00  0.0000E+00  0.0000E+00  0.0000E+00  0.0000E+00  0.0000E+00  0.0000E+00  0.0000E+00  0.0000E+00
    -36.378  0.0000E+00  0.0000E+00  0.0000E+00  0.0000E+00  0.0000E+00  0.0000E+00  0.0000E+00  0.0000E+00  0.0000E+00  0.0000E+00  0.0000E+00  0.0000E+00  0.0000E+00  0.0000E+00  0.0000E+00  0.0000E+00  0.0000E+00  0.0000E+00