   2   2   1   0
  0.2540666E+02  0.3353219E-09  0.3353219E-09  0.5218228E-09  0.5000000E-15
  1.000000000000000E-004
  CAR 
 unknown system                          
      9.82790314    -48.67878471  301      3.50057849      1.00000000
    -48.679  0.0000E+00  0.0000E+00  0.0000E+00  0.0000E+00
    -48.484  0.0000E+00  0.0000E+00  0.0000E+00  0.0000E+00
    -48.289  0.0000E+00  0.0000E+00  0.0000E+00  0.0000E+00
    -48.094  0.0000E+00  0.0000E+00  0.0000E+00  0.0000E+00
    -47.899  0.0000E+00  0.0000E+00  0.0000E+00  0.0000E+00
    -47.704  0.0000E+00  0.0000E+00  0.0000E+00  0.0000E+00
    -47.509  0.0000E+00  0.0000E+00  0.0000E+00  0.0000E+00
    -47.314  0.0000E+00  0.0000E+00  0.0000E+00  0.0000E+00
    -47.119  0.0000E+00  0.0000E+00  0.0000E+00  0.0000E+00
    -46.924  0.0000E+00  0.0000E+00  0.0000E+00  0.0000E+00
    -46.729  0.0000E+00  0.0000E+00  0.0000E+00  0.0000E+00
    -46.534  0.1301E-03  0.1773E-04  0.2537E-04  0.3459E-05
    -46.339  0.6294E-02  0.2778E-02  0.1253E-02  0.5453E-03
    -46.143  0.3006E+00  0.1334E+00  0.5987E-01  0.2655E-01
    -45.948  0.5741E+01  0.3856E+01  0.1180E+01  0.7785E+00
    -45.753  0.4060E+01  0.5933E+01  0.1971E+01  0.1936E+01
    -45.558  0.6779E-01  0.3164E+00  0.2000E+01  0.1999E+01
    -45.363  0.0000E+00  0.0000E+00  0.2000E+01  0.2000E+01
    -45.168  0.0000E+00  0.0000E+00  0.2000E+01  0.2000E+01
    -44.973  0.0000E+00  0.0000E+00  0.2000E+01  0.2000E+01
    -44.778  0.0000E+00  0.0000E+00  0.2000E+01  0.2000E+01
    -44.583  0.0000E+00  0.0000E+00  0.2000E+01  0.2000E+01
    -44.388  0.0000E+00  0.0000E+00  0.2000E+01  0.2000E+01
    -44.193  0.0000E+00  0.0000E+00  0.2000E+01  0.2000E+01
    -43.998  0.0000E+00  0.0000E+00  0.2000E+01  0.2000E+01
    -43.803  0.0000E+00  0.0000E+00  0.2000E+01  0.2000E+01
    -43.608  0.0000E+00  0.0000E+00  0.2000E+01  0.2000E+01
    -43.413  0.0000E+00  0.0000E+00  0.2000E+01  0.2000E+01
    -43.218  0.0000E+00  0.0000E+00  0.2000E+01  0.2000E+01
    -43.023  0.0000E+00  0.0000E+00  0.2000E+01  0.2000E+01
    -42.828  0.0000E+00  0.0000E+00  0.2000E+01  0.2000E+01
    -42.633  0.0000E+00  0.0000E+00  0.2000E+01  0.2000E+01
    -42.438  0.0000E+00  0.0000E+00  0.2000E+01  0.2000E+01
    -42.243  0.0000E+00  0.0000E+00  0.2000E+01  0.2000E+01
    -42.048  0.0000E+00  0.0000E+00  0.2000E+01  0.2000E+01
    -41.853  0.0000E+00  0.0000E+00  0.2000E+01  0.2000E+01
    -41.658  0.0000E+00  0.0000E+00  0.2000E+01  0.2000E+01
    -41.463  0.0000E+00  0.0000E+00  0.2000E+01  0.2000E+01
    -41.268  0.0000E+00  0.0000E+00  0.2000E+01  0.2000E+01
    -41.073  0.0000E+00  0.0000E+00  0.2000E+01  0.2000E+01
    -40.878  0.0000E+00  0.0000E+00  0.2000E+01  0.2000E+01
    -40.683  0.0000E+00  0.0000E+00  0.2000E+01  0.2000E+01
    -40.488  0.0000E+00  0.0000E+00  0.2000E+01  0.2000E+01
    -40.293  0.0000E+00  0.0000E+00  0.2000E+01  0.2000E+01
    -40.098  0.0000E+00  0.0000E+00  0.2000E+01  0.2000E+01
    -39.903  0.0000E+00  0.0000E+00  0.2000E+01  0.2000E+01
    -39.708  0.0000E+00  0.0000E+00  0.2000E+01  0.2000E+01
    -39.513  0.0000E+00  0.0000E+00  0.2000E+01  0.2000E+01
    -39.318  0.0000E+00  0.0000E+00  0.2000E+01  0.2000E+01
    -39.123  0.0000E+00  0.0000E+00  0.2000E+01  0.2000E+01
    -38.928  0.0000E+00  0.0000E+00  0.2000E+01  0.2000E+01
    -38.733  0.0000E+00  0.0000E+00  0.2000E+01  0.2000E+01
    -38.538  0.0000E+00  0.0000E+00  0.2000E+01  0.2000E+01
    -38.343  0.0000E+00  0.0000E+00  0.2000E+01  0.2000E+01
    -38.148  0.0000E+00  0.0000E+00  0.2000E+01  0.2000E+01
    -37.953  0.0000E+00  0.0000E+00  0.2000E+01  0.2000E+01
    -37.758  0.0000E+00  0.0000E+00  0.2000E+01  0.2000E+01
    -37.563  0.0000E+00  0.0000E+00  0.2000E+01  0.2000E+01
    -37.367  0.0000E+00  0.0000E+00  0.2000E+01  0.2000E+01
    -37.172  0.0000E+00  0.0000E+00  0.2000E+01  0.2000E+01
    -36.977  0.0000E+00  0.0000E+00  0.2000E+01  0.2000E+01
    -36.782  0.0000E+00  0.0000E+00  0.2000E+01  0.2000E+01
    -36.587  0.0000E+00  0.0000E+00  0.2000E+01  0.2000E+01
    -36.392  0.0000E+00  0.0000E+00  0.2000E+01  0.2000E+01
    -36.197  0.0000E+00  0.0000E+00  0.2000E+01  0.2000E+01
    -36.002  0.0000E+00  0.0000E+00  0.2000E+01  0.2000E+01
    -35.807  0.0000E+00  0.0000E+00  0.2000E+01  0.2000E+01
    -35.612  0.0000E+00  0.0000E+00  0.2000E+01  0.2000E+01
    -35.417  0.0000E+00  0.0000E+00  0.2000E+01  0.2000E+01
    -35.222  0.0000E+00  0.0000E+00  0.2000E+01  0.2000E+01
    -35.027  0.0000E+00  0.0000E+00  0.2000E+01  0.2000E+01
    -34.832  0.0000E+00  0.0000E+00  0.2000E+01  0.2000E+01
    -34.637  0.0000E+00  0.0000E+00  0.2000E+01  0.2000E+01
    -34.442  0.0000E+00  0.0000E+00  0.2000E+01  0.2000E+01
    -34.247  0.0000E+00  0.0000E+00  0.2000E+01  0.2000E+01
    -34.052  0.0000E+00  0.0000E+00  0.2000E+01  0.2000E+01
    -33.857  0.0000E+00  0.0000E+00  0.2000E+01  0.2000E+01
    -33.662  0.0000E+00  0.0000E+00  0.2000E+01  0.2000E+01
    -33.467  0.0000E+00  0.0000E+00  0.2000E+01  0.2000E+01
    -33.272  0.0000E+00  0.0000E+00  0.2000E+01  0.2000E+01
    -33.077  0.0000E+00  0.0000E+00  0.2000E+01  0.2000E+01
    -32.882  0.0000E+00  0.0000E+00  0.2000E+01  0.2000E+01
    -32.687  0.0000E+00  0.0000E+00  0.2000E+01  0.2000E+01
    -32.492  0.0000E+00  0.0000E+00  0.2000E+01  0.2000E+01
    -32.297  0.0000E+00  0.0000E+00  0.2000E+01  0.2000E+01
    -32.102  0.0000E+00  0.0000E+00  0.2000E+01  0.2000E+01
    -31.907  0.0000E+00  0.0000E+00  0.2000E+01  0.2000E+01
    -31.712  0.0000E+00  0.0000E+00  0.2000E+01  0.2000E+01
    -31.517  0.0000E+00  0.0000E+00  0.2000E+01  0.2000E+01
    -31.322  0.0000E+00  0.0000E+00  0.2000E+01  0.2000E+01
    -31.127  0.0000E+00  0.0000E+00  0.2000E+01  0.2000E+01
    -30.932  0.0000E+00  0.0000E+00  0.2000E+01  0.2000E+01
    -30.737  0.0000E+00  0.0000E+00  0.2000E+01  0.2000E+01
    -30.542  0.0000E+00  0.0000E+00  0.2000E+01  0.2000E+01
    -30.347  0.0000E+00  0.0000E+00  0.2000E+01  0.2000E+01
    -30.152  0.0000E+00  0.0000E+00  0.2000E+01  0.2000E+01
    -29.957  0.0000E+00  0.0000E+00  0.2000E+01  0.2000E+01
    -29.762  0.0000E+00  0.0000E+00  0.2000E+01  0.2000E+01
    -29.567  0.0000E+00  0.0000E+00  0.2000E+01  0.2000E+01
    -29.372  0.0000E+00  0.0000E+00  0.2000E+01  0.2000E+01
    -29.177  0.0000E+00  0.0000E+00  0.2000E+01  0.2000E+01
    -28.982  0.0000E+00  0.0000E+00  0.2000E+01  0.2000E+01
    -28.787  0.0000E+00  0.0000E+00  0.2000E+01  0.2000E+01
    -28.591  0.0000E+00  0.0000E+00  0.2000E+01  0.2000E+01
    -28.396  0.0000E+00  0.0000E+00  0.2000E+01  0.2000E+01
    -28.201  0.0000E+00  0.0000E+00  0.2000E+01  0.2000E+01
    -28.006  0.0000E+00  0.0000E+00  0.2000E+01  0.2000E+01
    -27.811  0.0000E+00  0.0000E+00  0.2000E+01  0.2000E+01
    -27.616  0.0000E+00  0.0000E+00  0.2000E+01  0.2000E+01
    -27.421  0.0000E+00  0.0000E+00  0.2000E+01  0.2000E+01
    -27.226  0.0000E+00  0.0000E+00  0.2000E+01  0.2000E+01
    -27.031  0.0000E+00  0.0000E+00  0.2000E+01  0.2000E+01
    -26.836  0.0000E+00  0.0000E+00  0.2000E+01  0.2000E+01
    -26.641  0.0000E+00  0.0000E+00  0.2000E+01  0.2000E+01
    -26.446  0.0000E+00  0.0000E+00  0.2000E+01  0.2000E+01
    -26.251  0.0000E+00  0.0000E+00  0.2000E+01  0.2000E+01
    -26.056  0.0000E+00  0.0000E+00  0.2000E+01  0.2000E+01
    -25.861  0.0000E+00  0.0000E+00  0.2000E+01  0.2000E+01
    -25.666  0.0000E+00  0.0000E+00  0.2000E+01  0.2000E+01
    -25.471  0.0000E+00  0.0000E+00  0.2000E+01  0.2000E+01
    -25.276  0.1831E-03  0.6880E-04  0.2000E+01  0.2000E+01
    -25.081  0.9999E-02  0.4301E-02  0.2002E+01  0.2001E+01
    -24.886  0.4624E+00  0.2072E+00  0.2092E+01  0.2041E+01
    -24.691  0.7087E+01  0.4802E+01  0.3474E+01  0.2978E+01
    -24.496  0.1617E+02  0.1496E+02  0.6628E+01  0.5896E+01
    -24.301  0.6723E+01  0.1016E+02  0.7949E+01  0.7885E+01
    -24.106  0.1549E+00  0.5011E+00  0.7999E+01  0.7998E+01
    -23.911  0.0000E+00  0.0000E+00  0.8000E+01  0.8000E+01
    -23.716  0.0000E+00  0.0000E+00  0.8000E+01  0.8000E+01
    -23.521  0.0000E+00  0.0000E+00  0.8000E+01  0.8000E+01
    -23.326  0.0000E+00  0.0000E+00  0.8000E+01  0.8000E+01
    -23.131  0.0000E+00  0.0000E+00  0.8000E+01  0.8000E+01
    -22.936  0.0000E+00  0.0000E+00  0.8000E+01  0.8000E+01
    -22.741  0.0000E+00  0.0000E+00  0.8000E+01  0.8000E+01
    -22.546  0.0000E+00  0.0000E+00  0.8000E+01  0.8000E+01
    -22.351  0.0000E+00  0.0000E+00  0.8000E+01  0.8000E+01
    -22.156  0.0000E+00  0.0000E+00  0.8000E+01  0.8000E+01
    -21.961  0.0000E+00  0.0000E+00  0.8000E+01  0.8000E+01
    -21.766  0.0000E+00  0.0000E+00  0.8000E+01  0.8000E+01
    -21.571  0.0000E+00  0.0000E+00  0.8000E+01  0.8000E+01
    -21.376  0.0000E+00  0.0000E+00  0.8000E+01  0.8000E+01
    -21.181  0.0000E+00  0.0000E+00  0.8000E+01  0.8000E+01
    -20.986  0.0000E+00  0.0000E+00  0.8000E+01  0.8000E+01
    -20.791  0.0000E+00  0.0000E+00  0.8000E+01  0.8000E+01
    -20.596  0.0000E+00  0.0000E+00  0.8000E+01  0.8000E+01
    -20.401  0.0000E+00  0.0000E+00  0.8000E+01  0.8000E+01
    -20.206  0.0000E+00  0.0000E+00  0.8000E+01  0.8000E+01
    -20.011  0.0000E+00  0.0000E+00  0.8000E+01  0.8000E+01
    -19.815  0.0000E+00  0.0000E+00  0.8000E+01  0.8000E+01
    -19.620  0.0000E+00  0.0000E+00  0.8000E+01  0.8000E+01
    -19.425  0.0000E+00  0.0000E+00  0.8000E+01  0.8000E+01
    -19.230  0.0000E+00  0.0000E+00  0.8000E+01  0.8000E+01
    -19.035  0.0000E+00  0.0000E+00  0.8000E+01  0.8000E+01
    -18.840  0.0000E+00  0.0000E+00  0.8000E+01  0.8000E+01
    -18.645  0.0000E+00  0.0000E+00  0.8000E+01  0.8000E+01
    -18.450  0.0000E+00  0.0000E+00  0.8000E+01  0.8000E+01
    -18.255  0.0000E+00  0.0000E+00  0.8000E+01  0.8000E+01
    -18.060  0.0000E+00  0.0000E+00  0.8000E+01  0.8000E+01
    -17.865  0.0000E+00  0.0000E+00  0.8000E+01  0.8000E+01
    -17.670  0.0000E+00  0.0000E+00  0.8000E+01  0.8000E+01
    -17.475  0.0000E+00  0.0000E+00  0.8000E+01  0.8000E+01
    -17.280  0.0000E+00  0.0000E+00  0.8000E+01  0.8000E+01
    -17.085  0.0000E+00  0.0000E+00  0.8000E+01  0.8000E+01
    -16.890  0.0000E+00  0.0000E+00  0.8000E+01  0.8000E+01
    -16.695  0.0000E+00  0.0000E+00  0.8000E+01  0.8000E+01
    -16.500  0.0000E+00  0.0000E+00  0.8000E+01  0.8000E+01
    -16.305  0.0000E+00  0.0000E+00  0.8000E+01  0.8000E+01
    -16.110  0.0000E+00  0.0000E+00  0.8000E+01  0.8000E+01
    -15.915  0.0000E+00  0.0000E+00  0.8000E+01  0.8000E+01
    -15.720  0.0000E+00  0.0000E+00  0.8000E+01  0.8000E+01
    -15.525  0.0000E+00  0.0000E+00  0.8000E+01  0.8000E+01
    -15.330  0.0000E+00  0.0000E+00  0.8000E+01  0.8000E+01
    -15.135  0.0000E+00  0.0000E+00  0.8000E+01  0.8000E+01
    -14.940  0.0000E+00  0.0000E+00  0.8000E+01  0.8000E+01
    -14.745  0.0000E+00  0.0000E+00  0.8000E+01  0.8000E+01
    -14.550  0.0000E+00  0.0000E+00  0.8000E+01  0.8000E+01
    -14.355  0.0000E+00  0.0000E+00  0.8000E+01  0.8000E+01
    -14.160  0.0000E+00  0.0000E+00  0.8000E+01  0.8000E+01
    -13.965  0.0000E+00  0.0000E+00  0.8000E+01  0.8000E+01
    -13.770  0.0000E+00  0.0000E+00  0.8000E+01  0.8000E+01
    -13.575  0.0000E+00  0.0000E+00  0.8000E+01  0.8000E+01
    -13.380  0.0000E+00  0.0000E+00  0.8000E+01  0.8000E+01
    -13.185  0.0000E+00  0.0000E+00  0.8000E+01  0.8000E+01
    -12.990  0.0000E+00  0.0000E+00  0.8000E+01  0.8000E+01
    -12.795  0.0000E+00  0.0000E+00  0.8000E+01  0.8000E+01
    -12.600  0.0000E+00  0.0000E+00  0.8000E+01  0.8000E+01
    -12.405  0.0000E+00  0.0000E+00  0.8000E+01  0.8000E+01
    -12.210  0.0000E+00  0.0000E+00  0.8000E+01  0.8000E+01
    -12.015  0.0000E+00  0.0000E+00  0.8000E+01  0.8000E+01
    -11.820  0.0000E+00  0.0000E+00  0.8000E+01  0.8000E+01
    -11.625  0.0000E+00  0.0000E+00  0.8000E+01  0.8000E+01
    -11.430  0.0000E+00  0.0000E+00  0.8000E+01  0.8000E+01
    -11.235  0.0000E+00  0.0000E+00  0.8000E+01  0.8000E+01
    -11.039  0.0000E+00  0.0000E+00  0.8000E+01  0.8000E+01
    -10.844  0.0000E+00  0.0000E+00  0.8000E+01  0.8000E+01
    -10.649  0.0000E+00  0.0000E+00  0.8000E+01  0.8000E+01
    -10.454  0.0000E+00  0.0000E+00  0.8000E+01  0.8000E+01
    -10.259  0.0000E+00  0.0000E+00  0.8000E+01  0.8000E+01
    -10.064  0.0000E+00  0.0000E+00  0.8000E+01  0.8000E+01
     -9.869  0.0000E+00  0.0000E+00  0.8000E+01  0.8000E+01
     -9.674  0.0000E+00  0.0000E+00  0.8000E+01  0.8000E+01
     -9.479  0.0000E+00  0.0000E+00  0.8000E+01  0.8000E+01
     -9.284  0.0000E+00  0.0000E+00  0.8000E+01  0.8000E+01
     -9.089  0.0000E+00  0.0000E+00  0.8000E+01  0.8000E+01
     -8.894  0.0000E+00  0.0000E+00  0.8000E+01  0.8000E+01
     -8.699  0.0000E+00  0.0000E+00  0.8000E+01  0.8000E+01
     -8.504  0.0000E+00  0.0000E+00  0.8000E+01  0.8000E+01
     -8.309  0.0000E+00  0.0000E+00  0.8000E+01  0.8000E+01
     -8.114  0.0000E+00  0.0000E+00  0.8000E+01  0.8000E+01
     -7.919  0.0000E+00  0.0000E+00  0.8000E+01  0.8000E+01
     -7.724  0.0000E+00  0.0000E+00  0.8000E+01  0.8000E+01
     -7.529  0.0000E+00  0.0000E+00  0.8000E+01  0.8000E+01
     -7.334  0.0000E+00  0.0000E+00  0.8000E+01  0.8000E+01
     -7.139  0.0000E+00  0.0000E+00  0.8000E+01  0.8000E+01
     -6.944  0.0000E+00  0.0000E+00  0.8000E+01  0.8000E+01
     -6.749  0.0000E+00  0.0000E+00  0.8000E+01  0.8000E+01
     -6.554  0.0000E+00  0.0000E+00  0.8000E+01  0.8000E+01
     -6.359  0.0000E+00  0.0000E+00  0.8000E+01  0.8000E+01
     -6.164  0.0000E+00  0.0000E+00  0.8000E+01  0.8000E+01
     -5.969  0.0000E+00  0.0000E+00  0.8000E+01  0.8000E+01
     -5.774  0.0000E+00  0.0000E+00  0.8000E+01  0.8000E+01
     -5.579  0.0000E+00  0.0000E+00  0.8000E+01  0.8000E+01
     -5.384  0.0000E+00  0.0000E+00  0.8000E+01  0.8000E+01
     -5.189  0.0000E+00  0.0000E+00  0.8000E+01  0.8000E+01
     -4.994  0.0000E+00  0.0000E+00  0.8000E+01  0.8000E+01
     -4.799  0.0000E+00  0.0000E+00  0.8000E+01  0.8000E+01
     -4.604  0.0000E+00  0.0000E+00  0.8000E+01  0.8000E+01
     -4.409  0.0000E+00  0.0000E+00  0.8000E+01  0.8000E+01
     -4.214  0.0000E+00  0.0000E+00  0.8000E+01  0.8000E+01
     -4.019  0.0000E+00  0.0000E+00  0.8000E+01  0.8000E+01
     -3.824  0.0000E+00  0.0000E+00  0.8000E+01  0.8000E+01
     -3.629  0.0000E+00  0.0000E+00  0.8000E+01  0.8000E+01
     -3.434  0.0000E+00  0.0000E+00  0.8000E+01  0.8000E+01
     -3.239  0.0000E+00  0.0000E+00  0.8000E+01  0.8000E+01
     -3.044  0.0000E+00  0.0000E+00  0.8000E+01  0.8000E+01
     -2.849  0.0000E+00  0.0000E+00  0.8000E+01  0.8000E+01
     -2.654  0.0000E+00  0.0000E+00  0.8000E+01  0.8000E+01
     -2.459  0.0000E+00  0.0000E+00  0.8000E+01  0.8000E+01
     -2.263  0.0000E+00  0.0000E+00  0.8000E+01  0.8000E+01
     -2.068  0.6849E-06  0.5796E-07  0.8000E+01  0.8000E+01
     -1.873  0.3662E-04  0.5883E-05  0.8000E+01  0.8000E+01
     -1.678  0.1605E-02  0.2824E-03  0.8000E+01  0.8000E+01
     -1.483  0.2429E-01  0.8253E-02  0.8005E+01  0.8002E+01
     -1.288  0.5725E-01  0.4791E-01  0.8016E+01  0.8011E+01
     -1.093  0.1041E+00  0.7417E-01  0.8037E+01  0.8025E+01
     -0.898  0.9319E-01  0.1066E+00  0.8055E+01  0.8046E+01
     -0.703  0.1478E+00  0.1121E+00  0.8084E+01  0.8068E+01
     -0.508  0.1505E+00  0.1526E+00  0.8113E+01  0.8098E+01
     -0.313  0.1591E+00  0.1765E+00  0.8144E+01  0.8133E+01
     -0.118  0.1866E+00  0.1393E+00  0.8181E+01  0.8160E+01
      0.077  0.2527E+00  0.2498E+00  0.8230E+01  0.8209E+01
      0.272  0.1983E+00  0.2191E+00  0.8269E+01  0.8252E+01
      0.467  0.2545E+00  0.2096E+00  0.8319E+01  0.8293E+01
      0.662  0.3046E+00  0.3022E+00  0.8378E+01  0.8352E+01
      0.857  0.3225E+00  0.3032E+00  0.8441E+01  0.8411E+01
      1.052  0.3532E+00  0.3511E+00  0.8510E+01  0.8480E+01
      1.247  0.3352E+00  0.3348E+00  0.8576E+01  0.8546E+01
      1.442  0.5297E+00  0.4033E+00  0.8679E+01  0.8625E+01
      1.637  0.5428E+00  0.5970E+00  0.8786E+01  0.8742E+01
      1.832  0.5763E+00  0.5213E+00  0.8898E+01  0.8844E+01
      2.027  0.9161E+00  0.7703E+00  0.9077E+01  0.8994E+01
      2.222  0.8395E+00  0.9353E+00  0.9241E+01  0.9177E+01
      2.417  0.8467E+00  0.8464E+00  0.9407E+01  0.9343E+01
      2.612  0.1011E+01  0.9933E+00  0.9605E+01  0.9537E+01
      2.807  0.1112E+01  0.1083E+01  0.9823E+01  0.9749E+01
      3.002  0.1463E+01  0.1242E+01  0.1011E+02  0.9992E+01
      3.197  0.1916E+01  0.1638E+01  0.1048E+02  0.1031E+02
      3.392  0.1961E+01  0.1888E+01  0.1087E+02  0.1068E+02
      3.587  0.2170E+01  0.2053E+01  0.1129E+02  0.1108E+02
      3.782  0.1510E+01  0.1997E+01  0.1159E+02  0.1147E+02
      3.977  0.9917E+00  0.1209E+01  0.1178E+02  0.1171E+02
      4.172  0.8660E+00  0.8903E+00  0.1195E+02  0.1189E+02
      4.367  0.1187E+01  0.1081E+01  0.1219E+02  0.1210E+02
      4.562  0.2172E+01  0.1813E+01  0.1261E+02  0.1245E+02
      4.757  0.2798E+01  0.2770E+01  0.1316E+02  0.1299E+02
      4.952  0.2465E+01  0.2619E+01  0.1364E+02  0.1351E+02
      5.147  0.2532E+01  0.2507E+01  0.1414E+02  0.1400E+02
      5.342  0.2573E+01  0.2675E+01  0.1464E+02  0.1452E+02
      5.537  0.1774E+01  0.2001E+01  0.1499E+02  0.1491E+02
      5.732  0.1153E+01  0.1291E+01  0.1521E+02  0.1517E+02
      5.927  0.8315E+00  0.8536E+00  0.1538E+02  0.1533E+02
      6.122  0.7251E+00  0.7422E+00  0.1552E+02  0.1548E+02
      6.318  0.6667E+00  0.6877E+00  0.1565E+02  0.1562E+02
      6.513  0.5836E+00  0.6197E+00  0.1576E+02  0.1574E+02
      6.708  0.4718E+00  0.4845E+00  0.1586E+02  0.1583E+02
      6.903  0.4544E+00  0.4466E+00  0.1595E+02  0.1592E+02
      7.098  0.2235E+00  0.3190E+00  0.1599E+02  0.1598E+02
      7.293  0.4542E-01  0.8392E-01  0.1600E+02  0.1600E+02
      7.488  0.1258E-02  0.4748E-02  0.1600E+02  0.1600E+02
      7.683  0.0000E+00  0.0000E+00  0.1600E+02  0.1600E+02
      7.878  0.0000E+00  0.0000E+00  0.1600E+02  0.1600E+02
      8.073  0.0000E+00  0.0000E+00  0.1600E+02  0.1600E+02
      8.268  0.0000E+00  0.0000E+00  0.1600E+02  0.1600E+02
      8.463  0.0000E+00  0.0000E+00  0.1600E+02  0.1600E+02
      8.658  0.0000E+00  0.0000E+00  0.1600E+02  0.1600E+02
      8.853  0.0000E+00  0.0000E+00  0.1600E+02  0.1600E+02
      9.048  0.0000E+00  0.0000E+00  0.1600E+02  0.1600E+02
      9.243  0.0000E+00  0.0000E+00  0.1600E+02  0.1600E+02
      9.438  0.0000E+00  0.0000E+00  0.1600E+02  0.1600E+02
      9.633  0.0000E+00  0.0000E+00  0.1600E+02  0.1600E+02
      9.828  0.0000E+00  0.0000E+00  0.1600E+02  0.1600E+02
      9.82790314    -48.67878471  301      3.50057849      1.00000000
    -48.679  0.0000E+00  0.0000E+00  0.0000E+00  0.0000E+00  0.0000E+00  0.0000E+00  0.0000E+00  0.0000E+00  0.0000E+00  0.0000E+00  0.0000E+00  0.0000E+00  0.0000E+00  0.0000E+00  0.0000E+00  0.0000E+00  0.0000E+00  0.0000E+00
    -48.484  0.0000E+00  0.0000E+00  0.0000E+00  0.0000E+00  0.0000E+00  0.0000E+00  0.0000E+00  0.0000E+00  0.0000E+00  0.0000E+00  0.0000E+00  0.0000E+00  0.0000E+00  0.0000E+00  0.0000E+00  0.0000E+00  0.0000E+00  0.0000E+00
    -48.289  0.0000E+00  0.0000E+00  0.0000E+00  0.0000E+00  0.0000E+00  0.0000E+00  0.0000E+00  0.0000E+00  0.0000E+00  0.0000E+00  0.0000E+00  0.0000E+00  0.0000E+00  0.0000E+00  0.0000E+00  0.0000E+00  0.0000E+00  0.0000E+00
    -48.094  0.0000E+00  0.0000E+00  0.0000E+00  0.0000E+00  0.0000E+00  0.0000E+00  0.0000E+00  0.0000E+00  0.0000E+00  0.0000E+00  0.0000E+00  0.0000E+00  0.0000E+00  0.0000E+00  0.0000E+00  0.0000E+00  0.0000E+00  0.0000E+00
    -47.899  0.0000E+00  0.0000E+00  0.0000E+00  0.0000E+00  0.0000E+00  0.0000E+00  0.0000E+00  0.0000E+00  0.0000E+00  0.0000E+00  0.0000E+00  0.0000E+00  0.0000E+00  0.0000E+00  0.0000E+00  0.0000E+00  0.0000E+00  0.0000E+00
    -47.704  0.0000E+00  0.0000E+00  0.0000E+00  0.0000E+00  0.0000E+00  0.0000E+00  0.0000E+00  0.0000E+00  0.0000E+00  0.0000E+00  0.0000E+00  0.0000E+00  0.0000E+00  0.0000E+00  0.0000E+00  0.0000E+00  0.0000E+00  0.0000E+00
    -47.509  0.0000E+00  0.0000E+00  0.0000E+00  0.0000E+00  0.0000E+00  0.0000E+00  0.0000E+00  0.0000E+00  0.0000E+00  0.0000E+00  0.0000E+00  0.0000E+00  0.0000E+00  0.0000E+00  0.0000E+00  0.0000E+00  0.0000E+00  0.0000E+00
    -47.314  0.0000E+00  0.0000E+00  0.0000E+00  0.0000E+00  0.0000E+00  0.0000E+00  0.0000E+00  0.0000E+00  0.0000E+00  0.0000E+00  0.0000E+00  0.0000E+00  0.0000E+00  0.0000E+00  0.0000E+00  0.0000E+00  0.0000E+00  0.0000E+00
    -47.119  0.0000E+00  0.0000E+00  0.0000E+00  0.0000E+00  0.0000E+00  0.0000E+00  0.0000E+00  0.0000E+00  0.0000E+00  0.0000E+00  0.0000E+00  0.0000E+00  0.0000E+00  0.0000E+00  0.0000E+00  0.0000E+00  0.0000E+00  0.0000E+00
    -46.924  0.0000E+00  0.0000E+00  0.0000E+00  0.0000E+00  0.0000E+00  0.0000E+00  0.0000E+00  0.0000E+00  0.0000E+00  0.0000E+00  0.0000E+00  0.0000E+00  0.0000E+00  0.0000E+00  0.0000E+00  0.0000E+00  0.0000E+00  0.0000E+00
    -46.729  0.0000E+00  0.0000E+00  0.0000E+00  0.0000E+00  0.0000E+00  0.0000E+00  0.0000E+00  0.0000E+00  0.0000E+00  0.0000E+00  0.0000E+00  0.0000E+00  0.0000E+00  0.0000E+00  0.0000E+00  0.0000E+00  0.0000E+00  0.0000E+00
    -46.534  0.6477E-04  0.8824E-05  0.8316E-10  0.1909E-10  0.1266E-09  0.2436E-10  0.8316E-10  0.1909E-10  0.1807E-10  0.1715E-11  0.2647E-10  0.1328E-11  0.3426E-10  0.5618E-11  0.2647E-10  0.1328E-11  0.1807E-10  0.1715E-11
    -46.339  0.3134E-02  0.1384E-02  0.4024E-08  0.1757E-08  0.6124E-08  0.2684E-08  0.4024E-08  0.1757E-08  0.8743E-09  0.3955E-09  0.1281E-08  0.5673E-09  0.1658E-08  0.8464E-09  0.1281E-08  0.5673E-09  0.8743E-09  0.3955E-09
    -46.143  0.1497E+00  0.6641E-01  0.1911E-06  0.8451E-07  0.2914E-06  0.1290E-06  0.1911E-06  0.8451E-07  0.4185E-07  0.1897E-07  0.6150E-07  0.2719E-07  0.7919E-07  0.4062E-07  0.6150E-07  0.2719E-07  0.4185E-07  0.1897E-07
    -45.948  0.2860E+01  0.1920E+01  0.3274E-05  0.2275E-05  0.5153E-05  0.3548E-05  0.3274E-05  0.2275E-05  0.8121E-06  0.5572E-06  0.1264E-05  0.8309E-06  0.1504E-05  0.1160E-05  0.1264E-05  0.8309E-06  0.8121E-06  0.5572E-06
    -45.753  0.2023E+01  0.2956E+01  0.1937E-05  0.2933E-05  0.3188E-05  0.4788E-05  0.1937E-05  0.2933E-05  0.5615E-06  0.8456E-06  0.9461E-06  0.1371E-05  0.1035E-05  0.1707E-05  0.9461E-06  0.1371E-05  0.5615E-06  0.8456E-06
    -45.558  0.3379E-01  0.1576E+00  0.1182E-07  0.1374E-06  0.2229E-07  0.2321E-06  0.1182E-07  0.1374E-06  0.5216E-08  0.4452E-07  0.1394E-07  0.7589E-07  0.1355E-07  0.8776E-07  0.1394E-07  0.7589E-07  0.5216E-08  0.4452E-07
    -45.363  0.0000E+00  0.0000E+00  0.0000E+00  0.0000E+00  0.0000E+00  0.0000E+00  0.0000E+00  0.0000E+00  0.0000E+00  0.0000E+00  0.0000E+00  0.0000E+00  0.0000E+00  0.0000E+00  0.0000E+00  0.0000E+00  0.0000E+00  0.0000E+00
    -45.168  0.0000E+00  0.0000E+00  0.0000E+00  0.0000E+00  0.0000E+00  0.0000E+00  0.0000E+00  0.0000E+00  0.0000E+00  0.0000E+00  0.0000E+00  0.0000E+00  0.0000E+00  0.0000E+00  0.0000E+00  0.0000E+00  0.0000E+00  0.0000E+00
    -44.973  0.0000E+00  0.0000E+00  0.0000E+00  0.0000E+00  0.0000E+00  0.0000E+00  0.0000E+00  0.0000E+00  0.0000E+00  0.0000E+00  0.0000E+00  0.0000E+00  0.0000E+00  0.0000E+00  0.0000E+00  0.0000E+00  0.0000E+00  0.0000E+00
    -44.778  0.0000E+00  0.0000E+00  0.0000E+00  0.0000E+00  0.0000E+00  0.0000E+00  0.0000E+00  0.0000E+00  0.0000E+00  0.0000E+00  0.0000E+00  0.0000E+00  0.0000E+00  0.0000E+00  0.0000E+00  0.0000E+00  0.0000E+00  0.0000E+00
    -44.583  0.0000E+00  0.0000E+00  0.0000E+00  0.0000E+00  0.0000E+00  0.0000E+00  0.0000E+00  0.0000E+00  0.0000E+00  0.0000E+00  0.0000E+00  0.0000E+00  0.0000E+00  0.0000E+00  0.0000E+00  0.0000E+00  0.0000E+00  0.0000E+00
    -44.388  0.0000E+00  0.0000E+00  0.0000E+00  0.0000E+00  0.0000E+00  0.0000E+00  0.0000E+00  0.0000E+00  0.0000E+00  0.0000E+00  0.0000E+00  0.0000E+00  0.0000E+00  0.0000E+00  0.0000E+00  0.0000E+00  0.0000E+00  0.0000E+00
    -44.193  0.0000E+00  0.0000E+00  0.0000E+00  0.0000E+00  0.0000E+00  0.0000E+00  0.0000E+00  0.0000E+00  0.0000E+00  0.0000E+00  0.0000E+00  0.0000E+00  0.0000E+00  0.0000E+00  0.0000E+00  0.0000E+00  0.0000E+00  0.0000E+00
    -43.998  0.0000E+00  0.0000E+00  0.0000E+00  0.0000E+00  0.0000E+00  0.0000E+00  0.0000E+00  0.0000E+00  0.0000E+00  0.0000E+00  0.0000E+00  0.0000E+00  0.0000E+00  0.0000E+00  0.0000E+00  0.0000E+00  0.0000E+00  0.0000E+00
    -43.803  0.0000E+00  0.0000E+00  0.0000E+00  0.0000E+00  0.0000E+00  0.0000E+00  0.0000E+00  0.0000E+00  0.0000E+00  0.0000E+00  0.0000E+00  0.0000E+00  0.0000E+00  0.0000E+00  0.0000E+00  0.0000E+00  0.0000E+00  0.0000E+00
    -43.608  0.0000E+00  0.0000E+00  0.0000E+00  0.0000E+00  0.0000E+00  0.0000E+00  0.0000E+00  0.0000E+00  0.0000E+00  0.0000E+00  0.0000E+00  0.0000E+00  0.0000E+00  0.0000E+00  0.0000E+00  0.0000E+00  0.0000E+00  0.0000E+00
    -43.413  0.0000E+00  0.0000E+00  0.0000E+00  0.0000E+00  0.0000E+00  0.0000E+00  0.0000E+00  0.0000E+00  0.0000E+00  0.0000E+00  0.0000E+00  0.0000E+00  0.0000E+00  0.0000E+00  0.0000E+00  0.0000E+00  0.0000E+00  0.0000E+00
    -43.218  0.0000E+00  0.0000E+00  0.0000E+00  0.0000E+00  0.0000E+00  0.0000E+00  0.0000E+00  0.0000E+00  0.0000E+00  0.0000E+00  0.0000E+00  0.0000E+00  0.0000E+00  0.0000E+00  0.0000E+00  0.0000E+00  0.0000E+00  0.0000E+00
    -43.023  0.0000E+00  0.0000E+00  0.0000E+00  0.0000E+00  0.0000E+00  0.0000E+00  0.0000E+00  0.0000E+00  0.0000E+00  0.0000E+00  0.0000E+00  0.0000E+00  0.0000E+00  0.0000E+00  0.0000E+00  0.0000E+00  0.0000E+00  0.0000E+00
    -42.828  0.0000E+00  0.0000E+00  0.0000E+00  0.0000E+00  0.0000E+00  0.0000E+00  0.0000E+00  0.0000E+00  0.0000E+00  0.0000E+00  0.0000E+00  0.0000E+00  0.0000E+00  0.0000E+00  0.0000E+00  0.0000E+00  0.0000E+00  0.0000E+00
    -42.633  0.0000E+00  0.0000E+00  0.0000E+00  0.0000E+00  0.0000E+00  0.0000E+00  0.0000E+00  0.0000E+00  0.0000E+00  0.0000E+00  0.0000E+00  0.0000E+00  0.0000E+00  0.0000E+00  0.0000E+00  0.0000E+00  0.0000E+00  0.0000E+00
    -42.438  0.0000E+00  0.0000E+00  0.0000E+00  0.0000E+00  0.0000E+00  0.0000E+00  0.0000E+00  0.0000E+00  0.0000E+00  0.0000E+00  0.0000E+00  0.0000E+00  0.0000E+00  0.0000E+00  0.0000E+00  0.0000E+00  0.0000E+00  0.0000E+00
    -42.243  0.0000E+00  0.0000E+00  0.0000E+00  0.0000E+00  0.0000E+00  0.0000E+00  0.0000E+00  0.0000E+00  0.0000E+00  0.0000E+00  0.0000E+00  0.0000E+00  0.0000E+00  0.0000E+00  0.0000E+00  0.0000E+00  0.0000E+00  0.0000E+00
    -42.048  0.0000E+00  0.0000E+00  0.0000E+00  0.0000E+00  0.0000E+00  0.0000E+00  0.0000E+00  0.0000E+00  0.0000E+00  0.0000E+00  0.0000E+00  0.0000E+00  0.0000E+00  0.0000E+00  0.0000E+00  0.0000E+00  0.0000E+00  0.0000E+00
    -41.853  0.0000E+00  0.0000E+00  0.0000E+00  0.0000E+00  0.0000E+00  0.0000E+00  0.0000E+00  0.0000E+00  0.0000E+00  0.0000E+00  0.0000E+00  0.0000E+00  0.0000E+00  0.0000E+00  0.0000E+00  0.0000E+00  0.0000E+00  0.0000E+00
    -41.658  0.0000E+00  0.0000E+00  0.0000E+00  0.0000E+00  0.0000E+00  0.0000E+00  0.0000E+00  0.0000E+00  0.0000E+00  0.0000E+00  0.0000E+00  0.0000E+00  0.0000E+00  0.0000E+00  0.0000E+00  0.0000E+00  0.0000E+00  0.0000E+00
    -41.463  0.0000E+00  0.0000E+00  0.0000E+00  0.0000E+00  0.0000E+00  0.0000E+00  0.0000E+00  0.0000E+00  0.0000E+00  0.0000E+00  0.0000E+00  0.0000E+00  0.0000E+00  0.0000E+00  0.0000E+00  0.0000E+00  0.0000E+00  0.0000E+00
    -41.268  0.0000E+00  0.0000E+00  0.0000E+00  0.0000E+00  0.0000E+00  0.0000E+00  0.0000E+00  0.0000E+00  0.0000E+00  0.0000E+00  0.0000E+00  0.0000E+00  0.0000E+00  0.0000E+00  0.0000E+00  0.0000E+00  0.0000E+00  0.0000E+00
    -41.073  0.0000E+00  0.0000E+00  0.0000E+00  0.0000E+00  0.0000E+00  0.0000E+00  0.0000E+00  0.0000E+00  0.0000E+00  0.0000E+00  0.0000E+00  0.0000E+00  0.0000E+00  0.0000E+00  0.0000E+00  0.0000E+00  0.0000E+00  0.0000E+00
    -40.878  0.0000E+00  0.0000E+00  0.0000E+00  0.0000E+00  0.0000E+00  0.0000E+00  0.0000E+00  0.0000E+00  0.0000E+00  0.0000E+00  0.0000E+00  0.0000E+00  0.0000E+00  0.0000E+00  0.0000E+00  0.0000E+00  0.0000E+00  0.0000E+00
    -40.683  0.0000E+00  0.0000E+00  0.0000E+00  0.0000E+00  0.0000E+00  0.0000E+00  0.0000E+00  0.0000E+00  0.0000E+00  0.0000E+00  0.0000E+00  0.0000E+00  0.0000E+00  0.0000E+00  0.0000E+00  0.0000E+00  0.0000E+00  0.0000E+00
    -40.488  0.0000E+00  0.0000E+00  0.0000E+00  0.0000E+00  0.0000E+00  0.0000E+00  0.0000E+00  0.0000E+00  0.0000E+00  0.0000E+00  0.0000E+00  0.0000E+00  0.0000E+00  0.0000E+00  0.0000E+00  0.0000E+00  0.0000E+00  0.0000E+00
    -40.293  0.0000E+00  0.0000E+00  0.0000E+00  0.0000E+00  0.0000E+00  0.0000E+00  0.0000E+00  0.0000E+00  0.0000E+00  0.0000E+00  0.0000E+00  0.0000E+00  0.0000E+00  0.0000E+00  0.0000E+00  0.0000E+00  0.0000E+00  0.0000E+00
    -40.098  0.0000E+00  0.0000E+00  0.0000E+00  0.0000E+00  0.0000E+00  0.0000E+00  0.0000E+00  0.0000E+00  0.0000E+00  0.0000E+00  0.0000E+00  0.0000E+00  0.0000E+00  0.0000E+00  0.0000E+00  0.0000E+00  0.0000E+00  0.0000E+00
    -39.903  0.0000E+00  0.0000E+00  0.0000E+00  0.0000E+00  0.0000E+00  0.0000E+00  0.0000E+00  0.0000E+00  0.0000E+00  0.0000E+00  0.0000E+00  0.0000E+00  0.0000E+00  0.0000E+00  0.0000E+00  0.0000E+00  0.0000E+00  0.0000E+00
    -39.708  0.0000E+00  0.0000E+00  0.0000E+00  0.0000E+00  0.0000E+00  0.0000E+00  0.0000E+00  0.0000E+00  0.0000E+00  0.0000E+00  0.0000E+00  0.0000E+00  0.0000E+00  0.0000E+00  0.0000E+00  0.0000E+00  0.0000E+00  0.0000E+00
    -39.513  0.0000E+00  0.0000E+00  0.0000E+00  0.0000E+00  0.0000E+00  0.0000E+00  0.0000E+00  0.0000E+00  0.0000E+00  0.0000E+00  0.0000E+00  0.0000E+00  0.0000E+00  0.0000E+00  0.0000E+00  0.0000E+00  0.0000E+00  0.0000E+00
    -39.318  0.0000E+00  0.0000E+00  0.0000E+00  0.0000E+00  0.0000E+00  0.0000E+00  0.0000E+00  0.0000E+00  0.0000E+00  0.0000E+00  0.0000E+00  0.0000E+00  0.0000E+00  0.0000E+00  0.0000E+00  0.0000E+00  0.0000E+00  0.0000E+00
    -39.123  0.0000E+00  0.0000E+00  0.0000E+00  0.0000E+00  0.0000E+00  0.0000E+00  0.0000E+00  0.0000E+00  0.0000E+00  0.0000E+00  0.0000E+00  0.0000E+00  0.0000E+00  0.0000E+00  0.0000E+00  0.0000E+00  0.0000E+00  0.0000E+00
    -38.928  0.0000E+00  0.0000E+00  0.0000E+00  0.0000E+00  0.0000E+00  0.0000E+00  0.0000E+00  0.0000E+00  0.0000E+00  0.0000E+00  0.0000E+00  0.0000E+00  0.0000E+00  0.0000E+00  0.0000E+00  0.0000E+00  0.0000E+00  0.0000E+00