 vasp.6.1.0 28Jan20 (build Jun 11 2020 16:13:15) complex                        
  
 executed on             LinuxIFC date 2021.04.16  00:03:13
 running on    4 total cores
 distrk:  each k-point on    4 cores,    1 groups
 distr:  one band on NCORE=   1 cores,    4 groups


--------------------------------------------------------------------------------------------------------


 INCAR:
 POTCAR:    PAW_PBE Sc_sv 07Sep2000               
 POTCAR:    PAW_PBE Sc_sv 07Sep2000               
   SHA256 =  9aad5a0618293b7e22b0823afd8bf80ef5c5e525eb8618ba91672918e18a06fa Sc_sv/POTCAR          
   COPYR  = (c) Copyright 07Sep2000 Georg Kresse                                                    
   COPYR  = This file is part of the software VASP. Any use, copying, and all other rights are regul
   COPYR  = If you do not have a valid VASP license, you may not use, copy or distribute this file. 
   VRHFIN =Sc: 3p4s3d                                                                               
   LEXCH  = PE                                                                                      
   EATOM  =  1273.2868 eV,   93.5839 Ry                                                             
                                                                                                    
   TITEL  = PAW_PBE Sc_sv 07Sep2000                                                                 
   LULTRA =        F    use ultrasoft PP ?                                                          
   IUNSCR =        1    unscreen: 0-lin 1-nonlin 2-no                                               
   RPACOR =    2.200    partial core radius                                                         
   POMASS =   44.956; ZVAL   =   11.000    mass and valenz                                          
   RCORE  =    2.500    outmost cutoff radius                                                       
   RWIGS  =    2.700; RWIGS  =    1.429    wigner-seitz radius (au A)                               
   ENMAX  =  222.660; ENMIN  =  166.995 eV                                                          
   RCLOC  =    1.805    cutoff for local pot                                                        
   LCOR   =        T    correct aug charges                                                         
   LPAW   =        T    paw PP                                                                      
   EAUG   =  443.063                                                                                
   RMAX   =    2.551    core radius for proj-oper                                                   
   RAUG   =    1.300    factor for augmentation sphere                                              
   RDEP   =    2.650    radius for radial grids                                                     
   RDEPT  =    2.038    core radius for aug-charge                                                  
                                                                                                    
   Atomic configuration                                                                             
    8 entries                                                                                       
     n  l   j            E        occ.                                                              
     1  0  0.50     -4394.2533   2.0000                                                             
     2  0  0.50      -471.0040   2.0000                                                             
     2  1  1.50      -384.9788   6.0000                                                             
     3  0  0.50       -52.1410   2.0000                                                             
     4  0  0.50        -3.5584   1.0000                                                             
     3  1  1.50       -30.8841   6.0000                                                             
     3  2  2.50        -1.3655   2.0000                                                             
     4  3  2.50        -1.3606   0.0000                                                             
   Description                                                                                      
     l       E           TYP  RCUT    TYP  RCUT                                                     
     0    -52.1409870     23  1.800                                                                 
     0     -3.5583698     23  2.500                                                                 
     1    -30.8840697     23  2.300                                                                 
     1      4.0817478     23  2.300                                                                 
     2     -1.3655397     23  2.500                                                                 
     2      0.3564476     23  2.500                                                                 
  local pseudopotential read in
  partial core-charges read in
  partial kinetic energy density read in
  atomic valenz-charges read in
  non local Contribution for L=           0  read in
    real space projection operators read in
  non local Contribution for L=           0  read in
    real space projection operators read in
  non local Contribution for L=           1  read in
    real space projection operators read in
  non local Contribution for L=           1  read in
    real space projection operators read in
  non local Contribution for L=           2  read in
    real space projection operators read in
  non local Contribution for L=           2  read in
    real space projection operators read in
    PAW grid and wavefunctions read in
 
   number of l-projection  operators is LMAX  =           6
   number of lm-projection operators is LMMAX =          18
 
  PAW_PBE Sc_sv 07Sep2000               :
 energy of atom  1       EATOM=-1273.2868
 kinetic energy error for atom=    0.0025 (will be added to EATOM!!)
 
 
 POSCAR: Sc2
  positions in direct lattice
  velocities in cartesian coordinates
 exchange correlation table for  LEXCH =        8
   RHO(1)=    0.500       N(1)  =     2000
   RHO(2)=  100.500       N(2)  =     4000
 


--------------------------------------------------------------------------------------------------------


 ion  position               nearest neighbor table
   1  0.333  0.667  0.250-   2 3.22   2 3.22   2 3.22   2 3.22   2 3.22   2 3.22
   2  0.667  0.333  0.750-   1 3.22   1 3.22   1 3.22   1 3.22   1 3.22   1 3.22
 
 -----------------------------------------------------------------------------
|                                                                             |
|           W    W    AA    RRRRR   N    N  II  N    N   GGGG   !!!           |
|           W    W   A  A   R    R  NN   N  II  NN   N  G    G  !!!           |
|           W    W  A    A  R    R  N N  N  II  N N  N  G       !!!           |
|           W WW W  AAAAAA  RRRRR   N  N N  II  N  N N  G  GGG   !            |
|           WW  WW  A    A  R   R   N   NN  II  N   NN  G    G                |
|           W    W  A    A  R    R  N    N  II  N    N   GGGG   !!!           |
|                                                                             |
|     The determination of the symmetry of your systems shows a strong        |
|     dependence on the tolerance parameter SYMPREC. This is often the        |
|     result of "noise" in the structural parameters (lattice vectors         |
|     and/or ionic positions). Set NWRITE=3 for more details.                 |
|                                                                             |
 -----------------------------------------------------------------------------

  LATTYP: Found a hexagonal cell.
 ALAT       =     3.3200189025
 C/A-ratio  =     1.5561846377
  
  Lattice vectors:
  
 A1 = (   3.3200189111,   0.0000000091,   0.0000000000)
 A2 = (  -1.6600089262,   2.8752203934,   0.0000000000)
 A3 = (   0.0000000000,   0.0000000000,   5.1665624128)


Analysis of symmetry for initial positions (statically):
=====================================================================
 Subroutine PRICEL returns:
 Original cell was already a primitive cell.
 

 Routine SETGRP: Setting up the symmetry group for a 
 hexagonal supercell.


 Subroutine GETGRP returns: Found 24 space group operations
 (whereof 12 operations were pure point group operations)
 out of a pool of 24 trial point group operations.


The static configuration has the point symmetry D_3d.
 The point group associated with its full space group is D_6h.


Analysis of symmetry for dynamics (positions and initial velocities):
=====================================================================
 Subroutine PRICEL returns:
 Original cell was already a primitive cell.
 

 Routine SETGRP: Setting up the symmetry group for a 
 hexagonal supercell.


 Subroutine GETGRP returns: Found 24 space group operations
 (whereof 12 operations were pure point group operations)
 out of a pool of 24 trial point group operations.


The dynamic configuration has the point symmetry D_3d.
 The point group associated with its full space group is D_6h.


 Subroutine INISYM returns: Found 24 space group operations
 (whereof 12 operations are pure point group operations),
 and found     1 'primitive' translations


----------------------------------------------------------------------------------------

                                     Primitive cell                                     

  volume of cell :      49.3189

  direct lattice vectors                    reciprocal lattice vectors
     3.320018911  0.000000009  0.000000000     0.301203103  0.173899657  0.000000000
    -1.660008926  2.875220393  0.000000000    -0.000000001  0.347799425  0.000000000
     0.000000000  0.000000000  5.166562413     0.000000000  0.000000000  0.193552293

  length of vectors
     3.320018911  3.320018365  5.166562413     0.347799367  0.347799425  0.193552293

  position of ions in fractional coordinates (direct lattice)
     0.333333000  0.666667000  0.250000000
     0.666667000  0.333333000  0.750000000

  ion indices of the primitive-cell ions
   primitive index   ion index
                 1           1
                 2           2

----------------------------------------------------------------------------------------

 
 
 KPOINTS: k points                                

Automatic generation of k-mesh.
Space group operators:
 irot       det(A)        alpha          n_x          n_y          n_z        tau_x        tau_y        tau_z
    1     1.000000     0.000000     1.000000     0.000000     0.000000     0.000000     0.000000     0.000000
    2    -1.000000     0.000000     1.000000     0.000000     0.000000     0.000000     0.000000     0.000000
    3     1.000000   120.000000     0.000000     0.000000    -1.000000     0.000000     0.000000     0.000000
    4    -1.000000   120.000000     0.000000     0.000000    -1.000000     0.000000     0.000000     0.000000
    5     1.000000   120.000000     0.000000     0.000000     1.000000     0.000000     0.000000     0.000000
    6    -1.000000   120.000000     0.000000     0.000000     1.000000     0.000000     0.000000     0.000000
    7     1.000000   179.999999     1.000000    -0.000000     0.000000     0.000000     0.000000     0.000000
    8    -1.000000   179.999999     1.000000    -0.000000     0.000000     0.000000     0.000000     0.000000
    9     1.000000   180.000000     0.500000    -0.866025     0.000000     0.000000     0.000000     0.000000
   10    -1.000000   180.000000     0.500000    -0.866025     0.000000     0.000000     0.000000     0.000000
   11     1.000000   180.000000    -0.500000    -0.866025     0.000000     0.000000     0.000000     0.000000
   12    -1.000000   180.000000    -0.500000    -0.866025     0.000000     0.000000     0.000000     0.000000
   13     1.000000    60.000000     0.000000     0.000000    -1.000000     0.000001    -0.000000    -0.500000
   14    -1.000000    60.000000     0.000000     0.000000    -1.000000     0.000000     0.000000    -0.500000
   15     1.000000   180.000000     0.000000     0.000000     1.000000     0.000000     0.000000    -0.500000
   16    -1.000000   180.000000     0.000000     0.000000     1.000000     0.000000     0.000000    -0.500000
   17     1.000000    60.000000     0.000000     0.000000     1.000000     0.000000     0.000000    -0.500000
   18    -1.000000    60.000000     0.000000     0.000000     1.000000     0.000000     0.000001    -0.500000
   19     1.000000   180.000000     0.866025    -0.500000     0.000000     0.000000     0.000000    -0.500000
   20    -1.000000   180.000000     0.866025    -0.500000     0.000000     0.000000     0.000000    -0.500000
   21     1.000000   180.000000     0.000000    -1.000000     0.000000     0.000000     0.000000    -0.500000
   22    -1.000000   180.000000     0.000000    -1.000000     0.000000     0.000001    -0.000000    -0.500000
   23     1.000000   179.999999     0.866025     0.500000     0.000000     0.000000     0.000001    -0.500000
   24    -1.000000   179.999999     0.866025     0.500000     0.000000     0.000000     0.000000    -0.500000
 
 Subroutine IBZKPT returns following result:
 ===========================================
 
 Found    105 irreducible k-points:
 
 Following reciprocal coordinates:
            Coordinates               Weight
  0.000000  0.000000  0.000000      1.000000
  0.076923 -0.000000  0.000000      6.000000
  0.153846 -0.000000  0.000000      6.000000
  0.230769 -0.000000  0.000000      6.000000
  0.307692 -0.000000  0.000000      6.000000
  0.384615 -0.000000  0.000000      6.000000
  0.461538 -0.000000  0.000000      6.000000
  0.076923  0.076923  0.000000      6.000000
  0.153846  0.076923  0.000000     12.000000
  0.230769  0.076923  0.000000     12.000000
  0.307692  0.076923  0.000000     12.000000
  0.384615  0.076923  0.000000     12.000000
  0.461538  0.076923  0.000000      6.000000
  0.153846  0.153846  0.000000      6.000000
  0.230769  0.153846  0.000000     12.000000
  0.307692  0.153846  0.000000     12.000000
  0.384615  0.153846  0.000000     12.000000
  0.230769  0.230769  0.000000      6.000000
  0.307692  0.230769  0.000000     12.000000
  0.384615  0.230769  0.000000      6.000000
  0.307692  0.307692  0.000000      6.000000
  0.000000  0.000000  0.111111      2.000000
  0.076923 -0.000000  0.111111     12.000000
  0.153846 -0.000000  0.111111     12.000000
  0.230769 -0.000000  0.111111     12.000000
  0.307692 -0.000000  0.111111     12.000000
  0.384615 -0.000000  0.111111     12.000000
  0.461538 -0.000000  0.111111     12.000000
  0.076923  0.076923  0.111111     12.000000
  0.153846  0.076923  0.111111     24.000000
  0.230769  0.076923  0.111111     24.000000
  0.307692  0.076923  0.111111     24.000000
  0.384615  0.076923  0.111111     24.000000
  0.461538  0.076923  0.111111     12.000000
  0.153846  0.153846  0.111111     12.000000
  0.230769  0.153846  0.111111     24.000000
  0.307692  0.153846  0.111111     24.000000
  0.384615  0.153846  0.111111     24.000000
  0.230769  0.230769  0.111111     12.000000
  0.307692  0.230769  0.111111     24.000000
  0.384615  0.230769  0.111111     12.000000
  0.307692  0.307692  0.111111     12.000000
  0.000000  0.000000  0.222222      2.000000
  0.076923 -0.000000  0.222222     12.000000
  0.153846 -0.000000  0.222222     12.000000
  0.230769 -0.000000  0.222222     12.000000
  0.307692 -0.000000  0.222222     12.000000
  0.384615 -0.000000  0.222222     12.000000
  0.461538 -0.000000  0.222222     12.000000
  0.076923  0.076923  0.222222     12.000000
  0.153846  0.076923  0.222222     24.000000
  0.230769  0.076923  0.222222     24.000000
  0.307692  0.076923  0.222222     24.000000
  0.384615  0.076923  0.222222     24.000000
  0.461538  0.076923  0.222222     12.000000
  0.153846  0.153846  0.222222     12.000000
  0.230769  0.153846  0.222222     24.000000
  0.307692  0.153846  0.222222     24.000000
  0.384615  0.153846  0.222222     24.000000
  0.230769  0.230769  0.222222     12.000000
  0.307692  0.230769  0.222222     24.000000
  0.384615  0.230769  0.222222     12.000000
  0.307692  0.307692  0.222222     12.000000
  0.000000  0.000000  0.333333      2.000000
  0.076923 -0.000000  0.333333     12.000000
  0.153846 -0.000000  0.333333     12.000000
  0.230769 -0.000000  0.333333     12.000000
  0.307692 -0.000000  0.333333     12.000000
  0.384615 -0.000000  0.333333     12.000000
  0.461538 -0.000000  0.333333     12.000000
  0.076923  0.076923  0.333333     12.000000
  0.153846  0.076923  0.333333     24.000000
  0.230769  0.076923  0.333333     24.000000
  0.307692  0.076923  0.333333     24.000000
  0.384615  0.076923  0.333333     24.000000
  0.461538  0.076923  0.333333     12.000000
  0.153846  0.153846  0.333333     12.000000
  0.230769  0.153846  0.333333     24.000000
  0.307692  0.153846  0.333333     24.000000
  0.384615  0.153846  0.333333     24.000000
  0.230769  0.230769  0.333333     12.000000
  0.307692  0.230769  0.333333     24.000000
  0.384615  0.230769  0.333333     12.000000
  0.307692  0.307692  0.333333     12.000000
  0.000000  0.000000  0.444444      2.000000
  0.076923 -0.000000  0.444444     12.000000
  0.153846 -0.000000  0.444444     12.000000
  0.230769 -0.000000  0.444444     12.000000
  0.307692 -0.000000  0.444444     12.000000
  0.384615 -0.000000  0.444444     12.000000
  0.461538 -0.000000  0.444444     12.000000
  0.076923  0.076923  0.444444     12.000000
  0.153846  0.076923  0.444444     24.000000
  0.230769  0.076923  0.444444     24.000000
  0.307692  0.076923  0.444444     24.000000
  0.384615  0.076923  0.444444     24.000000
  0.461538  0.076923  0.444444     12.000000
  0.153846  0.153846  0.444444     12.000000
  0.230769  0.153846  0.444444     24.000000
  0.307692  0.153846  0.444444     24.000000
  0.384615  0.153846  0.444444     24.000000
  0.230769  0.230769  0.444444     12.000000
  0.307692  0.230769  0.444444     24.000000
  0.384615  0.230769  0.444444     12.000000
  0.307692  0.307692  0.444444     12.000000
 
 Following cartesian coordinates:
            Coordinates               Weight
  0.000000  0.000000  0.000000      1.000000
  0.023169  0.013377  0.000000      6.000000
  0.046339  0.026754  0.000000      6.000000
  0.069508  0.040131  0.000000      6.000000
  0.092678  0.053508  0.000000      6.000000
  0.115847  0.066884  0.000000      6.000000
  0.139017  0.080261  0.000000      6.000000
  0.023169  0.040131  0.000000      6.000000
  0.046339  0.053508  0.000000     12.000000
  0.069508  0.066884  0.000000     12.000000
  0.092678  0.080261  0.000000     12.000000
  0.115847  0.093638  0.000000     12.000000
  0.139017  0.107015  0.000000      6.000000
  0.046339  0.080261  0.000000      6.000000
  0.069508  0.093638  0.000000     12.000000
  0.092678  0.107015  0.000000     12.000000
  0.115847  0.120392  0.000000     12.000000
  0.069508  0.120392  0.000000      6.000000
  0.092678  0.133769  0.000000     12.000000
  0.115847  0.147146  0.000000      6.000000
  0.092678  0.160523  0.000000      6.000000
  0.000000  0.000000  0.021506      2.000000
  0.023169  0.013377  0.021506     12.000000
  0.046339  0.026754  0.021506     12.000000
  0.069508  0.040131  0.021506     12.000000
  0.092678  0.053508  0.021506     12.000000
  0.115847  0.066884  0.021506     12.000000
  0.139017  0.080261  0.021506     12.000000
  0.023169  0.040131  0.021506     12.000000
  0.046339  0.053508  0.021506     24.000000
  0.069508  0.066884  0.021506     24.000000
  0.092678  0.080261  0.021506     24.000000
  0.115847  0.093638  0.021506     24.000000
  0.139017  0.107015  0.021506     12.000000
  0.046339  0.080261  0.021506     12.000000
  0.069508  0.093638  0.021506     24.000000
  0.092678  0.107015  0.021506     24.000000
  0.115847  0.120392  0.021506     24.000000
  0.069508  0.120392  0.021506     12.000000
  0.092678  0.133769  0.021506     24.000000
  0.115847  0.147146  0.021506     12.000000
  0.092678  0.160523  0.021506     12.000000
  0.000000  0.000000  0.043012      2.000000
  0.023169  0.013377  0.043012     12.000000
  0.046339  0.026754  0.043012     12.000000
  0.069508  0.040131  0.043012     12.000000
  0.092678  0.053508  0.043012     12.000000
  0.115847  0.066884  0.043012     12.000000
  0.139017  0.080261  0.043012     12.000000
  0.023169  0.040131  0.043012     12.000000
  0.046339  0.053508  0.043012     24.000000
  0.069508  0.066884  0.043012     24.000000
  0.092678  0.080261  0.043012     24.000000
  0.115847  0.093638  0.043012     24.000000
  0.139017  0.107015  0.043012     12.000000
  0.046339  0.080261  0.043012     12.000000
  0.069508  0.093638  0.043012     24.000000
  0.092678  0.107015  0.043012     24.000000
  0.115847  0.120392  0.043012     24.000000
  0.069508  0.120392  0.043012     12.000000
  0.092678  0.133769  0.043012     24.000000
  0.115847  0.147146  0.043012     12.000000
  0.092678  0.160523  0.043012     12.000000
  0.000000  0.000000  0.064517      2.000000
  0.023169  0.013377  0.064517     12.000000
  0.046339  0.026754  0.064517     12.000000
  0.069508  0.040131  0.064517     12.000000
  0.092678  0.053508  0.064517     12.000000
  0.115847  0.066884  0.064517     12.000000
  0.139017  0.080261  0.064517     12.000000
  0.023169  0.040131  0.064517     12.000000
  0.046339  0.053508  0.064517     24.000000
  0.069508  0.066884  0.064517     24.000000
  0.092678  0.080261  0.064517     24.000000
  0.115847  0.093638  0.064517     24.000000
  0.139017  0.107015  0.064517     12.000000
  0.046339  0.080261  0.064517     12.000000
  0.069508  0.093638  0.064517     24.000000
  0.092678  0.107015  0.064517     24.000000
  0.115847  0.120392  0.064517     24.000000
  0.069508  0.120392  0.064517     12.000000
  0.092678  0.133769  0.064517     24.000000
  0.115847  0.147146  0.064517     12.000000
  0.092678  0.160523  0.064517     12.000000
  0.000000  0.000000  0.086023      2.000000
  0.023169  0.013377  0.086023     12.000000
  0.046339  0.026754  0.086023     12.000000
  0.069508  0.040131  0.086023     12.000000
  0.092678  0.053508  0.086023     12.000000
  0.115847  0.066884  0.086023     12.000000
  0.139017  0.080261  0.086023     12.000000
  0.023169  0.040131  0.086023     12.000000
  0.046339  0.053508  0.086023     24.000000
  0.069508  0.066884  0.086023     24.000000
  0.092678  0.080261  0.086023     24.000000
  0.115847  0.093638  0.086023     24.000000
  0.139017  0.107015  0.086023     12.000000
  0.046339  0.080261  0.086023     12.000000
  0.069508  0.093638  0.086023     24.000000
  0.092678  0.107015  0.086023     24.000000
  0.115847  0.120392  0.086023     24.000000
  0.069508  0.120392  0.086023     12.000000
  0.092678  0.133769  0.086023     24.000000
  0.115847  0.147146  0.086023     12.000000
  0.092678  0.160523  0.086023     12.000000
 
 
 Subroutine IBZKPT_HF returns following result:
 ==============================================
 
 Found   1521 k-points in 1st BZ
 the following   1521 k-points will be used (e.g. in the exchange kernel)
 Following reciprocal coordinates:   # in IRBZ
  0.000000  0.000000  0.000000    0.00065746   1 t-inv F
  0.076923 -0.000000  0.000000    0.00065746   2 t-inv F
  0.153846 -0.000000  0.000000    0.00065746   3 t-inv F
  0.230769 -0.000000  0.000000    0.00065746   4 t-inv F
  0.307692 -0.000000  0.000000    0.00065746   5 t-inv F
  0.384615 -0.000000  0.000000    0.00065746   6 t-inv F
  0.461538 -0.000000  0.000000    0.00065746   7 t-inv F
  0.076923  0.076923  0.000000    0.00065746   8 t-inv F
  0.153846  0.076923  0.000000    0.00065746   9 t-inv F
  0.230769  0.076923  0.000000    0.00065746  10 t-inv F
  0.307692  0.076923  0.000000    0.00065746  11 t-inv F
  0.384615  0.076923  0.000000    0.00065746  12 t-inv F
  0.461538  0.076923  0.000000    0.00065746  13 t-inv F
  0.153846  0.153846  0.000000    0.00065746  14 t-inv F
  0.230769  0.153846  0.000000    0.00065746  15 t-inv F
  0.307692  0.153846  0.000000    0.00065746  16 t-inv F
  0.384615  0.153846  0.000000    0.00065746  17 t-inv F
  0.230769  0.230769  0.000000    0.00065746  18 t-inv F
  0.307692  0.230769  0.000000    0.00065746  19 t-inv F
  0.384615  0.230769  0.000000    0.00065746  20 t-inv F
  0.307692  0.307692  0.000000    0.00065746  21 t-inv F
  0.000000  0.000000  0.111111    0.00065746  22 t-inv F
  0.076923 -0.000000  0.111111    0.00065746  23 t-inv F
  0.153846 -0.000000  0.111111    0.00065746  24 t-inv F
  0.230769 -0.000000  0.111111    0.00065746  25 t-inv F
  0.307692 -0.000000  0.111111    0.00065746  26 t-inv F
  0.384615 -0.000000  0.111111    0.00065746  27 t-inv F
  0.461538 -0.000000  0.111111    0.00065746  28 t-inv F
  0.076923  0.076923  0.111111    0.00065746  29 t-inv F
  0.153846  0.076923  0.111111    0.00065746  30 t-inv F
  0.230769  0.076923  0.111111    0.00065746  31 t-inv F
  0.307692  0.076923  0.111111    0.00065746  32 t-inv F
  0.384615  0.076923  0.111111    0.00065746  33 t-inv F
  0.461538  0.076923  0.111111    0.00065746  34 t-inv F
  0.153846  0.153846  0.111111    0.00065746  35 t-inv F
  0.230769  0.153846  0.111111    0.00065746  36 t-inv F
  0.307692  0.153846  0.111111    0.00065746  37 t-inv F
  0.384615  0.153846  0.111111    0.00065746  38 t-inv F
  0.230769  0.230769  0.111111    0.00065746  39 t-inv F
  0.307692  0.230769  0.111111    0.00065746  40 t-inv F
  0.384615  0.230769  0.111111    0.00065746  41 t-inv F
  0.307692  0.307692  0.111111    0.00065746  42 t-inv F
  0.000000  0.000000  0.222222    0.00065746  43 t-inv F
  0.076923 -0.000000  0.222222    0.00065746  44 t-inv F
  0.153846 -0.000000  0.222222    0.00065746  45 t-inv F
  0.230769 -0.000000  0.222222    0.00065746  46 t-inv F
  0.307692 -0.000000  0.222222    0.00065746  47 t-inv F
  0.384615 -0.000000  0.222222    0.00065746  48 t-inv F
  0.461538 -0.000000  0.222222    0.00065746  49 t-inv F
  0.076923  0.076923  0.222222    0.00065746  50 t-inv F
  0.153846  0.076923  0.222222    0.00065746  51 t-inv F
  0.230769  0.076923  0.222222    0.00065746  52 t-inv F
  0.307692  0.076923  0.222222    0.00065746  53 t-inv F
  0.384615  0.076923  0.222222    0.00065746  54 t-inv F
  0.461538  0.076923  0.222222    0.00065746  55 t-inv F
  0.153846  0.153846  0.222222    0.00065746  56 t-inv F
  0.230769  0.153846  0.222222    0.00065746  57 t-inv F
  0.307692  0.153846  0.222222    0.00065746  58 t-inv F
  0.384615  0.153846  0.222222    0.00065746  59 t-inv F
  0.230769  0.230769  0.222222    0.00065746  60 t-inv F
  0.307692  0.230769  0.222222    0.00065746  61 t-inv F
  0.384615  0.230769  0.222222    0.00065746  62 t-inv F
  0.307692  0.307692  0.222222    0.00065746  63 t-inv F
  0.000000  0.000000  0.333333    0.00065746  64 t-inv F
  0.076923 -0.000000  0.333333    0.00065746  65 t-inv F
  0.153846 -0.000000  0.333333    0.00065746  66 t-inv F
  0.230769 -0.000000  0.333333    0.00065746  67 t-inv F
  0.307692 -0.000000  0.333333    0.00065746  68 t-inv F
  0.384615 -0.000000  0.333333    0.00065746  69 t-inv F
  0.461538 -0.000000  0.333333    0.00065746  70 t-inv F
  0.076923  0.076923  0.333333    0.00065746  71 t-inv F
  0.153846  0.076923  0.333333    0.00065746  72 t-inv F
  0.230769  0.076923  0.333333    0.00065746  73 t-inv F
  0.307692  0.076923  0.333333    0.00065746  74 t-inv F
  0.384615  0.076923  0.333333    0.00065746  75 t-inv F
  0.461538  0.076923  0.333333    0.00065746  76 t-inv F
  0.153846  0.153846  0.333333    0.00065746  77 t-inv F
  0.230769  0.153846  0.333333    0.00065746  78 t-inv F
  0.307692  0.153846  0.333333    0.00065746  79 t-inv F
  0.384615  0.153846  0.333333    0.00065746  80 t-inv F
  0.230769  0.230769  0.333333    0.00065746  81 t-inv F
  0.307692  0.230769  0.333333    0.00065746  82 t-inv F
  0.384615  0.230769  0.333333    0.00065746  83 t-inv F
  0.307692  0.307692  0.333333    0.00065746  84 t-inv F
  0.000000  0.000000  0.444444    0.00065746  85 t-inv F
  0.076923 -0.000000  0.444444    0.00065746  86 t-inv F
  0.153846 -0.000000  0.444444    0.00065746  87 t-inv F
  0.230769 -0.000000  0.444444    0.00065746  88 t-inv F
  0.307692 -0.000000  0.444444    0.00065746  89 t-inv F
  0.384615 -0.000000  0.444444    0.00065746  90 t-inv F
  0.461538 -0.000000  0.444444    0.00065746  91 t-inv F
  0.076923  0.076923  0.444444    0.00065746  92 t-inv F
  0.153846  0.076923  0.444444    0.00065746  93 t-inv F
  0.230769  0.076923  0.444444    0.00065746  94 t-inv F
  0.307692  0.076923  0.444444    0.00065746  95 t-inv F
  0.384615  0.076923  0.444444    0.00065746  96 t-inv F
  0.461538  0.076923  0.444444    0.00065746  97 t-inv F
  0.153846  0.153846  0.444444    0.00065746  98 t-inv F
  0.230769  0.153846  0.444444    0.00065746  99 t-inv F
  0.307692  0.153846  0.444444    0.00065746 100 t-inv F
  0.384615  0.153846  0.444444    0.00065746 101 t-inv F
  0.230769  0.230769  0.444444    0.00065746 102 t-inv F
  0.307692  0.230769  0.444444    0.00065746 103 t-inv F
  0.384615  0.230769  0.444444    0.00065746 104 t-inv F
  0.307692  0.307692  0.444444    0.00065746 105 t-inv F
 -0.076923  0.000000  0.000000    0.00065746   2 t-inv F
 -0.076923  0.076923  0.000000    0.00065746   2 t-inv F
  0.076923 -0.076923  0.000000    0.00065746   2 t-inv F
 -0.000000 -0.076923  0.000000    0.00065746   2 t-inv F
  0.000000  0.076923  0.000000    0.00065746   2 t-inv F
 -0.153846  0.000000  0.000000    0.00065746   3 t-inv F
 -0.153846  0.153846  0.000000    0.00065746   3 t-inv F
  0.153846 -0.153846  0.000000    0.00065746   3 t-inv F
 -0.000000 -0.153846  0.000000    0.00065746   3 t-inv F
  0.000000  0.153846  0.000000    0.00065746   3 t-inv F
 -0.230769  0.000000  0.000000    0.00065746   4 t-inv F
 -0.230769  0.230769  0.000000    0.00065746   4 t-inv F
  0.230769 -0.230769  0.000000    0.00065746   4 t-inv F
 -0.000000 -0.230769  0.000000    0.00065746   4 t-inv F
  0.000000  0.230769  0.000000    0.00065746   4 t-inv F
 -0.307692  0.000000  0.000000    0.00065746   5 t-inv F
 -0.307692  0.307692  0.000000    0.00065746   5 t-inv F
  0.307692 -0.307692  0.000000    0.00065746   5 t-inv F
 -0.000000 -0.307692  0.000000    0.00065746   5 t-inv F
  0.000000  0.307692  0.000000    0.00065746   5 t-inv F
 -0.384615  0.000000  0.000000    0.00065746   6 t-inv F
 -0.384615  0.384615  0.000000    0.00065746   6 t-inv F
  0.384615 -0.384615  0.000000    0.00065746   6 t-inv F
 -0.000000 -0.384615  0.000000    0.00065746   6 t-inv F
  0.000000  0.384615  0.000000    0.00065746   6 t-inv F
 -0.461538  0.000000  0.000000    0.00065746   7 t-inv F
 -0.461538  0.461538  0.000000    0.00065746   7 t-inv F
  0.461538 -0.461538  0.000000    0.00065746   7 t-inv F
 -0.000000 -0.461538  0.000000    0.00065746   7 t-inv F
  0.000000  0.461538  0.000000    0.00065746   7 t-inv F
 -0.076923 -0.076923  0.000000    0.00065746   8 t-inv F
 -0.153846  0.076923  0.000000    0.00065746   8 t-inv F
  0.153846 -0.076923  0.000000    0.00065746   8 t-inv F
  0.076923 -0.153846  0.000000    0.00065746   8 t-inv F
 -0.076923  0.153846  0.000000    0.00065746   8 t-inv F
 -0.153846 -0.076923  0.000000    0.00065746   9 t-inv F
 -0.230769  0.153846  0.000000    0.00065746   9 t-inv F
  0.230769 -0.153846  0.000000    0.00065746   9 t-inv F
  0.076923 -0.230769  0.000000    0.00065746   9 t-inv F
 -0.076923  0.230769  0.000000    0.00065746   9 t-inv F
  0.153846 -0.230769  0.000000    0.00065746   9 t-inv F
 -0.153846  0.230769  0.000000    0.00065746   9 t-inv F
 -0.230769  0.076923  0.000000    0.00065746   9 t-inv F
  0.230769 -0.076923  0.000000    0.00065746   9 t-inv F
  0.076923  0.153846  0.000000    0.00065746   9 t-inv F
 -0.076923 -0.153846  0.000000    0.00065746   9 t-inv F
 -0.230769 -0.076923  0.000000    0.00065746  10 t-inv F
 -0.307692  0.230769  0.000000    0.00065746  10 t-inv F
  0.307692 -0.230769  0.000000    0.00065746  10 t-inv F
  0.076923 -0.307692  0.000000    0.00065746  10 t-inv F
 -0.076923  0.307692  0.000000    0.00065746  10 t-inv F
  0.230769 -0.307692  0.000000    0.00065746  10 t-inv F
 -0.230769  0.307692  0.000000    0.00065746  10 t-inv F
 -0.307692  0.076923  0.000000    0.00065746  10 t-inv F
  0.307692 -0.076923  0.000000    0.00065746  10 t-inv F
  0.076923  0.230769  0.000000    0.00065746  10 t-inv F
 -0.076923 -0.230769  0.000000    0.00065746  10 t-inv F
 -0.307692 -0.076923  0.000000    0.00065746  11 t-inv F
 -0.384615  0.307692  0.000000    0.00065746  11 t-inv F
  0.384615 -0.307692  0.000000    0.00065746  11 t-inv F
  0.076923 -0.384615  0.000000    0.00065746  11 t-inv F
 -0.076923  0.384615  0.000000    0.00065746  11 t-inv F
  0.307692 -0.384615  0.000000    0.00065746  11 t-inv F
 -0.307692  0.384615  0.000000    0.00065746  11 t-inv F
 -0.384615  0.076923  0.000000    0.00065746  11 t-inv F
  0.384615 -0.076923  0.000000    0.00065746  11 t-inv F
  0.076923  0.307692  0.000000    0.00065746  11 t-inv F
 -0.076923 -0.307692  0.000000    0.00065746  11 t-inv F
 -0.384615 -0.076923  0.000000    0.00065746  12 t-inv F
 -0.461538  0.384615  0.000000    0.00065746  12 t-inv F
  0.461538 -0.384615  0.000000    0.00065746  12 t-inv F
  0.076923 -0.461538  0.000000    0.00065746  12 t-inv F
 -0.076923  0.461538  0.000000    0.00065746  12 t-inv F
  0.384615 -0.461538  0.000000    0.00065746  12 t-inv F
 -0.384615  0.461538  0.000000    0.00065746  12 t-inv F
 -0.461538  0.076923  0.000000    0.00065746  12 t-inv F
  0.461538 -0.076923  0.000000    0.00065746  12 t-inv F
  0.076923  0.384615  0.000000    0.00065746  12 t-inv F
 -0.076923 -0.384615  0.000000    0.00065746  12 t-inv F
 -0.461538 -0.076923  0.000000    0.00065746  13 t-inv F
 -0.538462  0.461538  0.000000    0.00065746  13 t-inv F
  0.538462 -0.461538  0.000000    0.00065746  13 t-inv F
  0.076923 -0.538462  0.000000    0.00065746  13 t-inv F
 -0.076923  0.538462  0.000000    0.00065746  13 t-inv F
 -0.153846 -0.153846  0.000000    0.00065746  14 t-inv F
 -0.307692  0.153846  0.000000    0.00065746  14 t-inv F
  0.307692 -0.153846  0.000000    0.00065746  14 t-inv F
  0.153846 -0.307692  0.000000    0.00065746  14 t-inv F
 -0.153846  0.307692  0.000000    0.00065746  14 t-inv F
 -0.230769 -0.153846  0.000000    0.00065746  15 t-inv F
 -0.384615  0.230769  0.000000    0.00065746  15 t-inv F
  0.384615 -0.230769  0.000000    0.00065746  15 t-inv F
  0.153846 -0.384615  0.000000    0.00065746  15 t-inv F
 -0.153846  0.384615  0.000000    0.00065746  15 t-inv F
  0.230769 -0.384615  0.000000    0.00065746  15 t-inv F
 -0.230769  0.384615  0.000000    0.00065746  15 t-inv F
 -0.384615  0.153846  0.000000    0.00065746  15 t-inv F
  0.384615 -0.153846  0.000000    0.00065746  15 t-inv F
  0.153846  0.230769  0.000000    0.00065746  15 t-inv F
 -0.153846 -0.230769  0.000000    0.00065746  15 t-inv F
 -0.307692 -0.153846  0.000000    0.00065746  16 t-inv F
 -0.461538  0.307692  0.000000    0.00065746  16 t-inv F
  0.461538 -0.307692  0.000000    0.00065746  16 t-inv F
  0.153846 -0.461538  0.000000    0.00065746  16 t-inv F
 -0.153846  0.461538  0.000000    0.00065746  16 t-inv F
  0.307692 -0.461538  0.000000    0.00065746  16 t-inv F
 -0.307692  0.461538  0.000000    0.00065746  16 t-inv F
 -0.461538  0.153846  0.000000    0.00065746  16 t-inv F
  0.461538 -0.153846  0.000000    0.00065746  16 t-inv F
  0.153846  0.307692  0.000000    0.00065746  16 t-inv F
 -0.153846 -0.307692  0.000000    0.00065746  16 t-inv F
 -0.384615 -0.153846  0.000000    0.00065746  17 t-inv F
 -0.538462  0.384615  0.000000    0.00065746  17 t-inv F
  0.538462 -0.384615  0.000000    0.00065746  17 t-inv F
  0.153846 -0.538462  0.000000    0.00065746  17 t-inv F
 -0.153846  0.538462  0.000000    0.00065746  17 t-inv F
  0.384615 -0.538462  0.000000    0.00065746  17 t-inv F
 -0.384615  0.538462  0.000000    0.00065746  17 t-inv F
 -0.538462  0.153846  0.000000    0.00065746  17 t-inv F
  0.538462 -0.153846  0.000000    0.00065746  17 t-inv F
  0.153846  0.384615  0.000000    0.00065746  17 t-inv F
 -0.153846 -0.384615  0.000000    0.00065746  17 t-inv F
 -0.230769 -0.230769  0.000000    0.00065746  18 t-inv F
 -0.461538  0.230769  0.000000    0.00065746  18 t-inv F
  0.461538 -0.230769  0.000000    0.00065746  18 t-inv F
  0.230769 -0.461538  0.000000    0.00065746  18 t-inv F
 -0.230769  0.461538  0.000000    0.00065746  18 t-inv F
 -0.307692 -0.230769  0.000000    0.00065746  19 t-inv F
 -0.538462  0.307692  0.000000    0.00065746  19 t-inv F
  0.538462 -0.307692  0.000000    0.00065746  19 t-inv F
  0.230769 -0.538462  0.000000    0.00065746  19 t-inv F
 -0.230769  0.538462  0.000000    0.00065746  19 t-inv F
  0.307692 -0.538462  0.000000    0.00065746  19 t-inv F
 -0.307692  0.538462  0.000000    0.00065746  19 t-inv F
 -0.538462  0.230769  0.000000    0.00065746  19 t-inv F
  0.538462 -0.230769  0.000000    0.00065746  19 t-inv F
  0.230769  0.307692  0.000000    0.00065746  19 t-inv F
 -0.230769 -0.307692  0.000000    0.00065746  19 t-inv F
 -0.384615 -0.230769  0.000000    0.00065746  20 t-inv F
 -0.615385  0.384615  0.000000    0.00065746  20 t-inv F
  0.615385 -0.384615  0.000000    0.00065746  20 t-inv F
  0.230769 -0.615385  0.000000    0.00065746  20 t-inv F
 -0.230769  0.615385  0.000000    0.00065746  20 t-inv F
 -0.307692 -0.307692  0.000000    0.00065746  21 t-inv F
 -0.615385  0.307692  0.000000    0.00065746  21 t-inv F
  0.615385 -0.307692  0.000000    0.00065746  21 t-inv F
  0.307692 -0.615385  0.000000    0.00065746  21 t-inv F
 -0.307692  0.615385  0.000000    0.00065746  21 t-inv F
  0.000000  0.000000 -0.111111    0.00065746  22 t-inv F
 -0.076923  0.000000 -0.111111    0.00065746  23 t-inv F
 -0.076923  0.076923  0.111111    0.00065746  23 t-inv F
  0.076923 -0.076923 -0.111111    0.00065746  23 t-inv F
 -0.000000 -0.076923  0.111111    0.00065746  23 t-inv F
  0.000000  0.076923 -0.111111    0.00065746  23 t-inv F
  0.000000  0.076923  0.111111    0.00065746  23 t-inv F
 -0.000000 -0.076923 -0.111111    0.00065746  23 t-inv F
 -0.076923  0.000000  0.111111    0.00065746  23 t-inv F
  0.076923 -0.000000 -0.111111    0.00065746  23 t-inv F
  0.076923 -0.076923  0.111111    0.00065746  23 t-inv F
 -0.076923  0.076923 -0.111111    0.00065746  23 t-inv F
 -0.153846  0.000000 -0.111111    0.00065746  24 t-inv F
 -0.153846  0.153846  0.111111    0.00065746  24 t-inv F
  0.153846 -0.153846 -0.111111    0.00065746  24 t-inv F
 -0.000000 -0.153846  0.111111    0.00065746  24 t-inv F
  0.000000  0.153846 -0.111111    0.00065746  24 t-inv F
  0.000000  0.153846  0.111111    0.00065746  24 t-inv F
 -0.000000 -0.153846 -0.111111    0.00065746  24 t-inv F
 -0.153846  0.000000  0.111111    0.00065746  24 t-inv F
  0.153846 -0.000000 -0.111111    0.00065746  24 t-inv F
  0.153846 -0.153846  0.111111    0.00065746  24 t-inv F
 -0.153846  0.153846 -0.111111    0.00065746  24 t-inv F
 -0.230769  0.000000 -0.111111    0.00065746  25 t-inv F
 -0.230769  0.230769  0.111111    0.00065746  25 t-inv F
  0.230769 -0.230769 -0.111111    0.00065746  25 t-inv F
 -0.000000 -0.230769  0.111111    0.00065746  25 t-inv F
  0.000000  0.230769 -0.111111    0.00065746  25 t-inv F
  0.000000  0.230769  0.111111    0.00065746  25 t-inv F
 -0.000000 -0.230769 -0.111111    0.00065746  25 t-inv F
 -0.230769  0.000000  0.111111    0.00065746  25 t-inv F
  0.230769 -0.000000 -0.111111    0.00065746  25 t-inv F
  0.230769 -0.230769  0.111111    0.00065746  25 t-inv F
 -0.230769  0.230769 -0.111111    0.00065746  25 t-inv F
 -0.307692  0.000000 -0.111111    0.00065746  26 t-inv F
 -0.307692  0.307692  0.111111    0.00065746  26 t-inv F
  0.307692 -0.307692 -0.111111    0.00065746  26 t-inv F
 -0.000000 -0.307692  0.111111    0.00065746  26 t-inv F
  0.000000  0.307692 -0.111111    0.00065746  26 t-inv F
  0.000000  0.307692  0.111111    0.00065746  26 t-inv F
 -0.000000 -0.307692 -0.111111    0.00065746  26 t-inv F
 -0.307692  0.000000  0.111111    0.00065746  26 t-inv F
  0.307692 -0.000000 -0.111111    0.00065746  26 t-inv F
  0.307692 -0.307692  0.111111    0.00065746  26 t-inv F
 -0.307692  0.307692 -0.111111    0.00065746  26 t-inv F
 -0.384615  0.000000 -0.111111    0.00065746  27 t-inv F
 -0.384615  0.384615  0.111111    0.00065746  27 t-inv F
  0.384615 -0.384615 -0.111111    0.00065746  27 t-inv F
 -0.000000 -0.384615  0.111111    0.00065746  27 t-inv F
  0.000000  0.384615 -0.111111    0.00065746  27 t-inv F
  0.000000  0.384615  0.111111    0.00065746  27 t-inv F
 -0.000000 -0.384615 -0.111111    0.00065746  27 t-inv F
 -0.384615  0.000000  0.111111    0.00065746  27 t-inv F
  0.384615 -0.000000 -0.111111    0.00065746  27 t-inv F
  0.384615 -0.384615  0.111111    0.00065746  27 t-inv F
 -0.384615  0.384615 -0.111111    0.00065746  27 t-inv F
 -0.461538  0.000000 -0.111111    0.00065746  28 t-inv F
 -0.461538  0.461538  0.111111    0.00065746  28 t-inv F
  0.461538 -0.461538 -0.111111    0.00065746  28 t-inv F
 -0.000000 -0.461538  0.111111    0.00065746  28 t-inv F
  0.000000  0.461538 -0.111111    0.00065746  28 t-inv F
  0.000000  0.461538  0.111111    0.00065746  28 t-inv F
 -0.000000 -0.461538 -0.111111    0.00065746  28 t-inv F
 -0.461538  0.000000  0.111111    0.00065746  28 t-inv F
  0.461538 -0.000000 -0.111111    0.00065746  28 t-inv F
  0.461538 -0.461538  0.111111    0.00065746  28 t-inv F
 -0.461538  0.461538 -0.111111    0.00065746  28 t-inv F
 -0.076923 -0.076923 -0.111111    0.00065746  29 t-inv F
 -0.153846  0.076923  0.111111    0.00065746  29 t-inv F
  0.153846 -0.076923 -0.111111    0.00065746  29 t-inv F
  0.076923 -0.153846  0.111111    0.00065746  29 t-inv F
 -0.076923  0.153846 -0.111111    0.00065746  29 t-inv F
  0.076923 -0.153846 -0.111111    0.00065746  29 t-inv F
 -0.076923  0.153846  0.111111    0.00065746  29 t-inv F
 -0.153846  0.076923 -0.111111    0.00065746  29 t-inv F
  0.153846 -0.076923  0.111111    0.00065746  29 t-inv F
  0.076923  0.076923 -0.111111    0.00065746  29 t-inv F
 -0.076923 -0.076923  0.111111    0.00065746  29 t-inv F
 -0.153846 -0.076923 -0.111111    0.00065746  30 t-inv F
 -0.230769  0.153846  0.111111    0.00065746  30 t-inv F
  0.230769 -0.153846 -0.111111    0.00065746  30 t-inv F
  0.076923 -0.230769  0.111111    0.00065746  30 t-inv F
 -0.076923  0.230769 -0.111111    0.00065746  30 t-inv F
  0.153846 -0.230769 -0.111111    0.00065746  30 t-inv F
 -0.153846  0.230769  0.111111    0.00065746  30 t-inv F
 -0.230769  0.076923 -0.111111    0.00065746  30 t-inv F
  0.230769 -0.076923  0.111111    0.00065746  30 t-inv F
  0.076923  0.153846 -0.111111    0.00065746  30 t-inv F
 -0.076923 -0.153846  0.111111    0.00065746  30 t-inv F
 -0.076923  0.230769  0.111111    0.00065746  30 t-inv F
  0.076923 -0.230769 -0.111111    0.00065746  30 t-inv F
 -0.153846 -0.076923  0.111111    0.00065746  30 t-inv F
  0.153846  0.076923 -0.111111    0.00065746  30 t-inv F
  0.230769 -0.153846  0.111111    0.00065746  30 t-inv F
 -0.230769  0.153846 -0.111111    0.00065746  30 t-inv F
 -0.076923 -0.153846 -0.111111    0.00065746  30 t-inv F
  0.076923  0.153846  0.111111    0.00065746  30 t-inv F
 -0.153846  0.230769 -0.111111    0.00065746  30 t-inv F
  0.153846 -0.230769  0.111111    0.00065746  30 t-inv F
  0.230769 -0.076923 -0.111111    0.00065746  30 t-inv F
 -0.230769  0.076923  0.111111    0.00065746  30 t-inv F
 -0.230769 -0.076923 -0.111111    0.00065746  31 t-inv F
 -0.307692  0.230769  0.111111    0.00065746  31 t-inv F
  0.307692 -0.230769 -0.111111    0.00065746  31 t-inv F
  0.076923 -0.307692  0.111111    0.00065746  31 t-inv F
 -0.076923  0.307692 -0.111111    0.00065746  31 t-inv F
  0.230769 -0.307692 -0.111111    0.00065746  31 t-inv F
 -0.230769  0.307692  0.111111    0.00065746  31 t-inv F
 -0.307692  0.076923 -0.111111    0.00065746  31 t-inv F
  0.307692 -0.076923  0.111111    0.00065746  31 t-inv F
  0.076923  0.230769 -0.111111    0.00065746  31 t-inv F
 -0.076923 -0.230769  0.111111    0.00065746  31 t-inv F
 -0.076923  0.307692  0.111111    0.00065746  31 t-inv F
  0.076923 -0.307692 -0.111111    0.00065746  31 t-inv F
 -0.230769 -0.076923  0.111111    0.00065746  31 t-inv F
  0.230769  0.076923 -0.111111    0.00065746  31 t-inv F
  0.307692 -0.230769  0.111111    0.00065746  31 t-inv F
 -0.307692  0.230769 -0.111111    0.00065746  31 t-inv F
 -0.076923 -0.230769 -0.111111    0.00065746  31 t-inv F
  0.076923  0.230769  0.111111    0.00065746  31 t-inv F
 -0.230769  0.307692 -0.111111    0.00065746  31 t-inv F
  0.230769 -0.307692  0.111111    0.00065746  31 t-inv F
  0.307692 -0.076923 -0.111111    0.00065746  31 t-inv F
 -0.307692  0.076923  0.111111    0.00065746  31 t-inv F
 -0.307692 -0.076923 -0.111111    0.00065746  32 t-inv F
 -0.384615  0.307692  0.111111    0.00065746  32 t-inv F
  0.384615 -0.307692 -0.111111    0.00065746  32 t-inv F
  0.076923 -0.384615  0.111111    0.00065746  32 t-inv F
 -0.076923  0.384615 -0.111111    0.00065746  32 t-inv F
  0.307692 -0.384615 -0.111111    0.00065746  32 t-inv F
 -0.307692  0.384615  0.111111    0.00065746  32 t-inv F
 -0.384615  0.076923 -0.111111    0.00065746  32 t-inv F
  0.384615 -0.076923  0.111111    0.00065746  32 t-inv F
  0.076923  0.307692 -0.111111    0.00065746  32 t-inv F
 -0.076923 -0.307692  0.111111    0.00065746  32 t-inv F
 -0.076923  0.384615  0.111111    0.00065746  32 t-inv F
  0.076923 -0.384615 -0.111111    0.00065746  32 t-inv F
 -0.307692 -0.076923  0.111111    0.00065746  32 t-inv F
  0.307692  0.076923 -0.111111    0.00065746  32 t-inv F
  0.384615 -0.307692  0.111111    0.00065746  32 t-inv F
 -0.384615  0.307692 -0.111111    0.00065746  32 t-inv F
 -0.076923 -0.307692 -0.111111    0.00065746  32 t-inv F
  0.076923  0.307692  0.111111    0.00065746  32 t-inv F
 -0.307692  0.384615 -0.111111    0.00065746  32 t-inv F
  0.307692 -0.384615  0.111111    0.00065746  32 t-inv F
  0.384615 -0.076923 -0.111111    0.00065746  32 t-inv F
 -0.384615  0.076923  0.111111    0.00065746  32 t-inv F
 -0.384615 -0.076923 -0.111111    0.00065746  33 t-inv F
 -0.461538  0.384615  0.111111    0.00065746  33 t-inv F
  0.461538 -0.384615 -0.111111    0.00065746  33 t-inv F
  0.076923 -0.461538  0.111111    0.00065746  33 t-inv F
 -0.076923  0.461538 -0.111111    0.00065746  33 t-inv F
  0.384615 -0.461538 -0.111111    0.00065746  33 t-inv F
 -0.384615  0.461538  0.111111    0.00065746  33 t-inv F
 -0.461538  0.076923 -0.111111    0.00065746  33 t-inv F
  0.461538 -0.076923  0.111111    0.00065746  33 t-inv F
  0.076923  0.384615 -0.111111    0.00065746  33 t-inv F
 -0.076923 -0.384615  0.111111    0.00065746  33 t-inv F
 -0.076923  0.461538  0.111111    0.00065746  33 t-inv F
  0.076923 -0.461538 -0.111111    0.00065746  33 t-inv F
 -0.384615 -0.076923  0.111111    0.00065746  33 t-inv F
  0.384615  0.076923 -0.111111    0.00065746  33 t-inv F
  0.461538 -0.384615  0.111111    0.00065746  33 t-inv F
 -0.461538  0.384615 -0.111111    0.00065746  33 t-inv F
 -0.076923 -0.384615 -0.111111    0.00065746  33 t-inv F
  0.076923  0.384615  0.111111    0.00065746  33 t-inv F
 -0.384615  0.461538 -0.111111    0.00065746  33 t-inv F
  0.384615 -0.461538  0.111111    0.00065746  33 t-inv F
  0.461538 -0.076923 -0.111111    0.00065746  33 t-inv F
 -0.461538  0.076923  0.111111    0.00065746  33 t-inv F
 -0.461538 -0.076923 -0.111111    0.00065746  34 t-inv F
 -0.538462  0.461538  0.111111    0.00065746  34 t-inv F
  0.538462 -0.461538 -0.111111    0.00065746  34 t-inv F
  0.076923 -0.538462  0.111111    0.00065746  34 t-inv F
 -0.076923  0.538462 -0.111111    0.00065746  34 t-inv F
  0.461538 -0.538462 -0.111111    0.00065746  34 t-inv F
 -0.461538  0.538462  0.111111    0.00065746  34 t-inv F
 -0.538462  0.076923 -0.111111    0.00065746  34 t-inv F
  0.538462 -0.076923  0.111111    0.00065746  34 t-inv F
  0.076923  0.461538 -0.111111    0.00065746  34 t-inv F
 -0.076923 -0.461538  0.111111    0.00065746  34 t-inv F
 -0.153846 -0.153846 -0.111111    0.00065746  35 t-inv F
 -0.307692  0.153846  0.111111    0.00065746  35 t-inv F
  0.307692 -0.153846 -0.111111    0.00065746  35 t-inv F
  0.153846 -0.307692  0.111111    0.00065746  35 t-inv F
 -0.153846  0.307692 -0.111111    0.00065746  35 t-inv F
  0.153846 -0.307692 -0.111111    0.00065746  35 t-inv F
 -0.153846  0.307692  0.111111    0.00065746  35 t-inv F
 -0.307692  0.153846 -0.111111    0.00065746  35 t-inv F
  0.307692 -0.153846  0.111111    0.00065746  35 t-inv F
  0.153846  0.153846 -0.111111    0.00065746  35 t-inv F
 -0.153846 -0.153846  0.111111    0.00065746  35 t-inv F
 -0.230769 -0.153846 -0.111111    0.00065746  36 t-inv F
 -0.384615  0.230769  0.111111    0.00065746  36 t-inv F
  0.384615 -0.230769 -0.111111    0.00065746  36 t-inv F
  0.153846 -0.384615  0.111111    0.00065746  36 t-inv F
 -0.153846  0.384615 -0.111111    0.00065746  36 t-inv F
  0.230769 -0.384615 -0.111111    0.00065746  36 t-inv F
 -0.230769  0.384615  0.111111    0.00065746  36 t-inv F
 -0.384615  0.153846 -0.111111    0.00065746  36 t-inv F
  0.384615 -0.153846  0.111111    0.00065746  36 t-inv F
  0.153846  0.230769 -0.111111    0.00065746  36 t-inv F
 -0.153846 -0.230769  0.111111    0.00065746  36 t-inv F
 -0.153846  0.384615  0.111111    0.00065746  36 t-inv F
  0.153846 -0.384615 -0.111111    0.00065746  36 t-inv F
 -0.230769 -0.153846  0.111111    0.00065746  36 t-inv F
  0.230769  0.153846 -0.111111    0.00065746  36 t-inv F
  0.384615 -0.230769  0.111111    0.00065746  36 t-inv F
 -0.384615  0.230769 -0.111111    0.00065746  36 t-inv F
 -0.153846 -0.230769 -0.111111    0.00065746  36 t-inv F
  0.153846  0.230769  0.111111    0.00065746  36 t-inv F
 -0.230769  0.384615 -0.111111    0.00065746  36 t-inv F
  0.230769 -0.384615  0.111111    0.00065746  36 t-inv F
  0.384615 -0.153846 -0.111111    0.00065746  36 t-inv F
 -0.384615  0.153846  0.111111    0.00065746  36 t-inv F
 -0.307692 -0.153846 -0.111111    0.00065746  37 t-inv F
 -0.461538  0.307692  0.111111    0.00065746  37 t-inv F
  0.461538 -0.307692 -0.111111    0.00065746  37 t-inv F
  0.153846 -0.461538  0.111111    0.00065746  37 t-inv F
 -0.153846  0.461538 -0.111111    0.00065746  37 t-inv F
  0.307692 -0.461538 -0.111111    0.00065746  37 t-inv F
 -0.307692  0.461538  0.111111    0.00065746  37 t-inv F
 -0.461538  0.153846 -0.111111    0.00065746  37 t-inv F
  0.461538 -0.153846  0.111111    0.00065746  37 t-inv F
  0.153846  0.307692 -0.111111    0.00065746  37 t-inv F
 -0.153846 -0.307692  0.111111    0.00065746  37 t-inv F
 -0.153846  0.461538  0.111111    0.00065746  37 t-inv F
  0.153846 -0.461538 -0.111111    0.00065746  37 t-inv F
 -0.307692 -0.153846  0.111111    0.00065746  37 t-inv F
  0.307692  0.153846 -0.111111    0.00065746  37 t-inv F
  0.461538 -0.307692  0.111111    0.00065746  37 t-inv F
 -0.461538  0.307692 -0.111111    0.00065746  37 t-inv F
 -0.153846 -0.307692 -0.111111    0.00065746  37 t-inv F
  0.153846  0.307692  0.111111    0.00065746  37 t-inv F
 -0.307692  0.461538 -0.111111    0.00065746  37 t-inv F
  0.307692 -0.461538  0.111111    0.00065746  37 t-inv F
  0.461538 -0.153846 -0.111111    0.00065746  37 t-inv F
 -0.461538  0.153846  0.111111    0.00065746  37 t-inv F
 -0.384615 -0.153846 -0.111111    0.00065746  38 t-inv F
 -0.538462  0.384615  0.111111    0.00065746  38 t-inv F
  0.538462 -0.384615 -0.111111    0.00065746  38 t-inv F
  0.153846 -0.538462  0.111111    0.00065746  38 t-inv F
 -0.153846  0.538462 -0.111111    0.00065746  38 t-inv F
  0.384615 -0.538462 -0.111111    0.00065746  38 t-inv F
 -0.384615  0.538462  0.111111    0.00065746  38 t-inv F
 -0.538462  0.153846 -0.111111    0.00065746  38 t-inv F
  0.538462 -0.153846  0.111111    0.00065746  38 t-inv F
  0.153846  0.384615 -0.111111    0.00065746  38 t-inv F
 -0.153846 -0.384615  0.111111    0.00065746  38 t-inv F
 -0.153846  0.538462  0.111111    0.00065746  38 t-inv F
  0.153846 -0.538462 -0.111111    0.00065746  38 t-inv F
 -0.384615 -0.153846  0.111111    0.00065746  38 t-inv F
  0.384615  0.153846 -0.111111    0.00065746  38 t-inv F
  0.538462 -0.384615  0.111111    0.00065746  38 t-inv F
 -0.538462  0.384615 -0.111111    0.00065746  38 t-inv F
 -0.153846 -0.384615 -0.111111    0.00065746  38 t-inv F
  0.153846  0.384615  0.111111    0.00065746  38 t-inv F
 -0.384615  0.538462 -0.111111    0.00065746  38 t-inv F
  0.384615 -0.538462  0.111111    0.00065746  38 t-inv F
  0.538462 -0.153846 -0.111111    0.00065746  38 t-inv F
 -0.538462  0.153846  0.111111    0.00065746  38 t-inv F
 -0.230769 -0.230769 -0.111111    0.00065746  39 t-inv F
 -0.461538  0.230769  0.111111    0.00065746  39 t-inv F
  0.461538 -0.230769 -0.111111    0.00065746  39 t-inv F
  0.230769 -0.461538  0.111111    0.00065746  39 t-inv F
 -0.230769  0.461538 -0.111111    0.00065746  39 t-inv F
  0.230769 -0.461538 -0.111111    0.00065746  39 t-inv F
 -0.230769  0.461538  0.111111    0.00065746  39 t-inv F
 -0.461538  0.230769 -0.111111    0.00065746  39 t-inv F
  0.461538 -0.230769  0.111111    0.00065746  39 t-inv F
  0.230769  0.230769 -0.111111    0.00065746  39 t-inv F
 -0.230769 -0.230769  0.111111    0.00065746  39 t-inv F
 -0.307692 -0.230769 -0.111111    0.00065746  40 t-inv F
 -0.538462  0.307692  0.111111    0.00065746  40 t-inv F
  0.538462 -0.307692 -0.111111    0.00065746  40 t-inv F
  0.230769 -0.538462  0.111111    0.00065746  40 t-inv F
 -0.230769  0.538462 -0.111111    0.00065746  40 t-inv F
  0.307692 -0.538462 -0.111111    0.00065746  40 t-inv F
 -0.307692  0.538462  0.111111    0.00065746  40 t-inv F
 -0.538462  0.230769 -0.111111    0.00065746  40 t-inv F
  0.538462 -0.230769  0.111111    0.00065746  40 t-inv F
  0.230769  0.307692 -0.111111    0.00065746  40 t-inv F
 -0.230769 -0.307692  0.111111    0.00065746  40 t-inv F
 -0.230769  0.538462  0.111111    0.00065746  40 t-inv F
  0.230769 -0.538462 -0.111111    0.00065746  40 t-inv F
 -0.307692 -0.230769  0.111111    0.00065746  40 t-inv F
  0.307692  0.230769 -0.111111    0.00065746  40 t-inv F
  0.538462 -0.307692  0.111111    0.00065746  40 t-inv F
 -0.538462  0.307692 -0.111111    0.00065746  40 t-inv F
 -0.230769 -0.307692 -0.111111    0.00065746  40 t-inv F
  0.230769  0.307692  0.111111    0.00065746  40 t-inv F
 -0.307692  0.538462 -0.111111    0.00065746  40 t-inv F
  0.307692 -0.538462  0.111111    0.00065746  40 t-inv F
  0.538462 -0.230769 -0.111111    0.00065746  40 t-inv F
 -0.538462  0.230769  0.111111    0.00065746  40 t-inv F
 -0.384615 -0.230769 -0.111111    0.00065746  41 t-inv F
 -0.615385  0.384615  0.111111    0.00065746  41 t-inv F
  0.615385 -0.384615 -0.111111    0.00065746  41 t-inv F
  0.230769 -0.615385  0.111111    0.00065746  41 t-inv F
 -0.230769  0.615385 -0.111111    0.00065746  41 t-inv F
  0.384615 -0.615385 -0.111111    0.00065746  41 t-inv F
 -0.384615  0.615385  0.111111    0.00065746  41 t-inv F
 -0.615385  0.230769 -0.111111    0.00065746  41 t-inv F
  0.615385 -0.230769  0.111111    0.00065746  41 t-inv F
  0.230769  0.384615 -0.111111    0.00065746  41 t-inv F
 -0.230769 -0.384615  0.111111    0.00065746  41 t-inv F
 -0.307692 -0.307692 -0.111111    0.00065746  42 t-inv F
 -0.615385  0.307692  0.111111    0.00065746  42 t-inv F
  0.615385 -0.307692 -0.111111    0.00065746  42 t-inv F
  0.307692 -0.615385  0.111111    0.00065746  42 t-inv F
 -0.307692  0.615385 -0.111111    0.00065746  42 t-inv F
  0.307692 -0.615385 -0.111111    0.00065746  42 t-inv F
 -0.307692  0.615385  0.111111    0.00065746  42 t-inv F
 -0.615385  0.307692 -0.111111    0.00065746  42 t-inv F
  0.615385 -0.307692  0.111111    0.00065746  42 t-inv F
  0.307692  0.307692 -0.111111    0.00065746  42 t-inv F
 -0.307692 -0.307692  0.111111    0.00065746  42 t-inv F
  0.000000  0.000000 -0.222222    0.00065746  43 t-inv F
 -0.076923  0.000000 -0.222222    0.00065746  44 t-inv F
 -0.076923  0.076923  0.222222    0.00065746  44 t-inv F
  0.076923 -0.076923 -0.222222    0.00065746  44 t-inv F
 -0.000000 -0.076923  0.222222    0.00065746  44 t-inv F
  0.000000  0.076923 -0.222222    0.00065746  44 t-inv F
  0.000000  0.076923  0.222222    0.00065746  44 t-inv F
 -0.000000 -0.076923 -0.222222    0.00065746  44 t-inv F
 -0.076923  0.000000  0.222222    0.00065746  44 t-inv F
  0.076923 -0.000000 -0.222222    0.00065746  44 t-inv F
  0.076923 -0.076923  0.222222    0.00065746  44 t-inv F
 -0.076923  0.076923 -0.222222    0.00065746  44 t-inv F
 -0.153846  0.000000 -0.222222    0.00065746  45 t-inv F
 -0.153846  0.153846  0.222222    0.00065746  45 t-inv F
  0.153846 -0.153846 -0.222222    0.00065746  45 t-inv F
 -0.000000 -0.153846  0.222222    0.00065746  45 t-inv F
  0.000000  0.153846 -0.222222    0.00065746  45 t-inv F
  0.000000  0.153846  0.222222    0.00065746  45 t-inv F
 -0.000000 -0.153846 -0.222222    0.00065746  45 t-inv F
 -0.153846  0.000000  0.222222    0.00065746  45 t-inv F
  0.153846 -0.000000 -0.222222    0.00065746  45 t-inv F
  0.153846 -0.153846  0.222222    0.00065746  45 t-inv F
 -0.153846  0.153846 -0.222222    0.00065746  45 t-inv F
 -0.230769  0.000000 -0.222222    0.00065746  46 t-inv F
 -0.230769  0.230769  0.222222    0.00065746  46 t-inv F
  0.230769 -0.230769 -0.222222    0.00065746  46 t-inv F
 -0.000000 -0.230769  0.222222    0.00065746  46 t-inv F
  0.000000  0.230769 -0.222222    0.00065746  46 t-inv F
  0.000000  0.230769  0.222222    0.00065746  46 t-inv F
 -0.000000 -0.230769 -0.222222    0.00065746  46 t-inv F
 -0.230769  0.000000  0.222222    0.00065746  46 t-inv F
  0.230769 -0.000000 -0.222222    0.00065746  46 t-inv F
  0.230769 -0.230769  0.222222    0.00065746  46 t-inv F
 -0.230769  0.230769 -0.222222    0.00065746  46 t-inv F
 -0.307692  0.000000 -0.222222    0.00065746  47 t-inv F
 -0.307692  0.307692  0.222222    0.00065746  47 t-inv F
  0.307692 -0.307692 -0.222222    0.00065746  47 t-inv F
 -0.000000 -0.307692  0.222222    0.00065746  47 t-inv F
  0.000000  0.307692 -0.222222    0.00065746  47 t-inv F
  0.000000  0.307692  0.222222    0.00065746  47 t-inv F
 -0.000000 -0.307692 -0.222222    0.00065746  47 t-inv F
 -0.307692  0.000000  0.222222    0.00065746  47 t-inv F
  0.307692 -0.000000 -0.222222    0.00065746  47 t-inv F
  0.307692 -0.307692  0.222222    0.00065746  47 t-inv F
 -0.307692  0.307692 -0.222222    0.00065746  47 t-inv F
 -0.384615  0.000000 -0.222222    0.00065746  48 t-inv F
 -0.384615  0.384615  0.222222    0.00065746  48 t-inv F
  0.384615 -0.384615 -0.222222    0.00065746  48 t-inv F
 -0.000000 -0.384615  0.222222    0.00065746  48 t-inv F
  0.000000  0.384615 -0.222222    0.00065746  48 t-inv F
  0.000000  0.384615  0.222222    0.00065746  48 t-inv F
 -0.000000 -0.384615 -0.222222    0.00065746  48 t-inv F
 -0.384615  0.000000  0.222222    0.00065746  48 t-inv F
  0.384615 -0.000000 -0.222222    0.00065746  48 t-inv F
  0.384615 -0.384615  0.222222    0.00065746  48 t-inv F
 -0.384615  0.384615 -0.222222    0.00065746  48 t-inv F
 -0.461538  0.000000 -0.222222    0.00065746  49 t-inv F
 -0.461538  0.461538  0.222222    0.00065746  49 t-inv F
  0.461538 -0.461538 -0.222222    0.00065746  49 t-inv F
 -0.000000 -0.461538  0.222222    0.00065746  49 t-inv F
  0.000000  0.461538 -0.222222    0.00065746  49 t-inv F
  0.000000  0.461538  0.222222    0.00065746  49 t-inv F
 -0.000000 -0.461538 -0.222222    0.00065746  49 t-inv F
 -0.461538  0.000000  0.222222    0.00065746  49 t-inv F
  0.461538 -0.000000 -0.222222    0.00065746  49 t-inv F
  0.461538 -0.461538  0.222222    0.00065746  49 t-inv F
 -0.461538  0.461538 -0.222222    0.00065746  49 t-inv F
 -0.076923 -0.076923 -0.222222    0.00065746  50 t-inv F
 -0.153846  0.076923  0.222222    0.00065746  50 t-inv F
  0.153846 -0.076923 -0.222222    0.00065746  50 t-inv F
  0.076923 -0.153846  0.222222    0.00065746  50 t-inv F
 -0.076923  0.153846 -0.222222    0.00065746  50 t-inv F
  0.076923 -0.153846 -0.222222    0.00065746  50 t-inv F
 -0.076923  0.153846  0.222222    0.00065746  50 t-inv F
 -0.153846  0.076923 -0.222222    0.00065746  50 t-inv F
  0.153846 -0.076923  0.222222    0.00065746  50 t-inv F
  0.076923  0.076923 -0.222222    0.00065746  50 t-inv F
 -0.076923 -0.076923  0.222222    0.00065746  50 t-inv F
 -0.153846 -0.076923 -0.222222    0.00065746  51 t-inv F
 -0.230769  0.153846  0.222222    0.00065746  51 t-inv F
  0.230769 -0.153846 -0.222222    0.00065746  51 t-inv F
  0.076923 -0.230769  0.222222    0.00065746  51 t-inv F
 -0.076923  0.230769 -0.222222    0.00065746  51 t-inv F
  0.153846 -0.230769 -0.222222    0.00065746  51 t-inv F
 -0.153846  0.230769  0.222222    0.00065746  51 t-inv F
 -0.230769  0.076923 -0.222222    0.00065746  51 t-inv F
  0.230769 -0.076923  0.222222    0.00065746  51 t-inv F
  0.076923  0.153846 -0.222222    0.00065746  51 t-inv F
 -0.076923 -0.153846  0.222222    0.00065746  51 t-inv F
 -0.076923  0.230769  0.222222    0.00065746  51 t-inv F
  0.076923 -0.230769 -0.222222    0.00065746  51 t-inv F
 -0.153846 -0.076923  0.222222    0.00065746  51 t-inv F
  0.153846  0.076923 -0.222222    0.00065746  51 t-inv F
  0.230769 -0.153846  0.222222    0.00065746  51 t-inv F
 -0.230769  0.153846 -0.222222    0.00065746  51 t-inv F
 -0.076923 -0.153846 -0.222222    0.00065746  51 t-inv F
  0.076923  0.153846  0.222222    0.00065746  51 t-inv F
 -0.153846  0.230769 -0.222222    0.00065746  51 t-inv F
  0.153846 -0.230769  0.222222    0.00065746  51 t-inv F
  0.230769 -0.076923 -0.222222    0.00065746  51 t-inv F
 -0.230769  0.076923  0.222222    0.00065746  51 t-inv F
 -0.230769 -0.076923 -0.222222    0.00065746  52 t-inv F
 -0.307692  0.230769  0.222222    0.00065746  52 t-inv F
  0.307692 -0.230769 -0.222222    0.00065746  52 t-inv F
  0.076923 -0.307692  0.222222    0.00065746  52 t-inv F
 -0.076923  0.307692 -0.222222    0.00065746  52 t-inv F
  0.230769 -0.307692 -0.222222    0.00065746  52 t-inv F
 -0.230769  0.307692  0.222222    0.00065746  52 t-inv F
 -0.307692  0.076923 -0.222222    0.00065746  52 t-inv F
  0.307692 -0.076923  0.222222    0.00065746  52 t-inv F
  0.076923  0.230769 -0.222222    0.00065746  52 t-inv F
 -0.076923 -0.230769  0.222222    0.00065746  52 t-inv F
 -0.076923  0.307692  0.222222    0.00065746  52 t-inv F
  0.076923 -0.307692 -0.222222    0.00065746  52 t-inv F
 -0.230769 -0.076923  0.222222    0.00065746  52 t-inv F
  0.230769  0.076923 -0.222222    0.00065746  52 t-inv F
  0.307692 -0.230769  0.222222    0.00065746  52 t-inv F
 -0.307692  0.230769 -0.222222    0.00065746  52 t-inv F
 -0.076923 -0.230769 -0.222222    0.00065746  52 t-inv F
  0.076923  0.230769  0.222222    0.00065746  52 t-inv F
 -0.230769  0.307692 -0.222222    0.00065746  52 t-inv F
  0.230769 -0.307692  0.222222    0.00065746  52 t-inv F
  0.307692 -0.076923 -0.222222    0.00065746  52 t-inv F
 -0.307692  0.076923  0.222222    0.00065746  52 t-inv F
 -0.307692 -0.076923 -0.222222    0.00065746  53 t-inv F
 -0.384615  0.307692  0.222222    0.00065746  53 t-inv F
  0.384615 -0.307692 -0.222222    0.00065746  53 t-inv F
  0.076923 -0.384615  0.222222    0.00065746  53 t-inv F
 -0.076923  0.384615 -0.222222    0.00065746  53 t-inv F
  0.307692 -0.384615 -0.222222    0.00065746  53 t-inv F
 -0.307692  0.384615  0.222222    0.00065746  53 t-inv F
 -0.384615  0.076923 -0.222222    0.00065746  53 t-inv F
  0.384615 -0.076923  0.222222    0.00065746  53 t-inv F
  0.076923  0.307692 -0.222222    0.00065746  53 t-inv F
 -0.076923 -0.307692  0.222222    0.00065746  53 t-inv F
 -0.076923  0.384615  0.222222    0.00065746  53 t-inv F
  0.076923 -0.384615 -0.222222    0.00065746  53 t-inv F
 -0.307692 -0.076923  0.222222    0.00065746  53 t-inv F
  0.307692  0.076923 -0.222222    0.00065746  53 t-inv F
  0.384615 -0.307692  0.222222    0.00065746  53 t-inv F
 -0.384615  0.307692 -0.222222    0.00065746  53 t-inv F
 -0.076923 -0.307692 -0.222222    0.00065746  53 t-inv F
  0.076923  0.307692  0.222222    0.00065746  53 t-inv F
 -0.307692  0.384615 -0.222222    0.00065746  53 t-inv F
  0.307692 -0.384615  0.222222    0.00065746  53 t-inv F
  0.384615 -0.076923 -0.222222    0.00065746  53 t-inv F
 -0.384615  0.076923  0.222222    0.00065746  53 t-inv F
 -0.384615 -0.076923 -0.222222    0.00065746  54 t-inv F
 -0.461538  0.384615  0.222222    0.00065746  54 t-inv F
  0.461538 -0.384615 -0.222222    0.00065746  54 t-inv F
  0.076923 -0.461538  0.222222    0.00065746  54 t-inv F
 -0.076923  0.461538 -0.222222    0.00065746  54 t-inv F
  0.384615 -0.461538 -0.222222    0.00065746  54 t-inv F
 -0.384615  0.461538  0.222222    0.00065746  54 t-inv F
 -0.461538  0.076923 -0.222222    0.00065746  54 t-inv F
  0.461538 -0.076923  0.222222    0.00065746  54 t-inv F
  0.076923  0.384615 -0.222222    0.00065746  54 t-inv F
 -0.076923 -0.384615  0.222222    0.00065746  54 t-inv F
 -0.076923  0.461538  0.222222    0.00065746  54 t-inv F
  0.076923 -0.461538 -0.222222    0.00065746  54 t-inv F
 -0.384615 -0.076923  0.222222    0.00065746  54 t-inv F
  0.384615  0.076923 -0.222222    0.00065746  54 t-inv F
  0.461538 -0.384615  0.222222    0.00065746  54 t-inv F
 -0.461538  0.384615 -0.222222    0.00065746  54 t-inv F
 -0.076923 -0.384615 -0.222222    0.00065746  54 t-inv F
  0.076923  0.384615  0.222222    0.00065746  54 t-inv F
 -0.384615  0.461538 -0.222222    0.00065746  54 t-inv F
  0.384615 -0.461538  0.222222    0.00065746  54 t-inv F
  0.461538 -0.076923 -0.222222    0.00065746  54 t-inv F
 -0.461538  0.076923  0.222222    0.00065746  54 t-inv F
 -0.461538 -0.076923 -0.222222    0.00065746  55 t-inv F
 -0.538462  0.461538  0.222222    0.00065746  55 t-inv F
  0.538462 -0.461538 -0.222222    0.00065746  55 t-inv F
  0.076923 -0.538462  0.222222    0.00065746  55 t-inv F
 -0.076923  0.538462 -0.222222    0.00065746  55 t-inv F
  0.461538 -0.538462 -0.222222    0.00065746  55 t-inv F
 -0.461538  0.538462  0.222222    0.00065746  55 t-inv F
 -0.538462  0.076923 -0.222222    0.00065746  55 t-inv F
  0.538462 -0.076923  0.222222    0.00065746  55 t-inv F
  0.076923  0.461538 -0.222222    0.00065746  55 t-inv F
 -0.076923 -0.461538  0.222222    0.00065746  55 t-inv F
 -0.153846 -0.153846 -0.222222    0.00065746  56 t-inv F
 -0.307692  0.153846  0.222222    0.00065746  56 t-inv F
  0.307692 -0.153846 -0.222222    0.00065746  56 t-inv F
  0.153846 -0.307692  0.222222    0.00065746  56 t-inv F
 -0.153846  0.307692 -0.222222    0.00065746  56 t-inv F
  0.153846 -0.307692 -0.222222    0.00065746  56 t-inv F
 -0.153846  0.307692  0.222222    0.00065746  56 t-inv F
 -0.307692  0.153846 -0.222222    0.00065746  56 t-inv F
  0.307692 -0.153846  0.222222    0.00065746  56 t-inv F
  0.153846  0.153846 -0.222222    0.00065746  56 t-inv F
 -0.153846 -0.153846  0.222222    0.00065746  56 t-inv F
 -0.230769 -0.153846 -0.222222    0.00065746  57 t-inv F
 -0.384615  0.230769  0.222222    0.00065746  57 t-inv F
  0.384615 -0.230769 -0.222222    0.00065746  57 t-inv F
  0.153846 -0.384615  0.222222    0.00065746  57 t-inv F
 -0.153846  0.384615 -0.222222    0.00065746  57 t-inv F
  0.230769 -0.384615 -0.222222    0.00065746  57 t-inv F
 -0.230769  0.384615  0.222222    0.00065746  57 t-inv F
 -0.384615  0.153846 -0.222222    0.00065746  57 t-inv F
  0.384615 -0.153846  0.222222    0.00065746  57 t-inv F
  0.153846  0.230769 -0.222222    0.00065746  57 t-inv F
 -0.153846 -0.230769  0.222222    0.00065746  57 t-inv F
 -0.153846  0.384615  0.222222    0.00065746  57 t-inv F
  0.153846 -0.384615 -0.222222    0.00065746  57 t-inv F
 -0.230769 -0.153846  0.222222    0.00065746  57 t-inv F
  0.230769  0.153846 -0.222222    0.00065746  57 t-inv F
  0.384615 -0.230769  0.222222    0.00065746  57 t-inv F
 -0.384615  0.230769 -0.222222    0.00065746  57 t-inv F
 -0.153846 -0.230769 -0.222222    0.00065746  57 t-inv F
  0.153846  0.230769  0.222222    0.00065746  57 t-inv F
 -0.230769  0.384615 -0.222222    0.00065746  57 t-inv F
  0.230769 -0.384615  0.222222    0.00065746  57 t-inv F
  0.384615 -0.153846 -0.222222    0.00065746  57 t-inv F
 -0.384615  0.153846  0.222222    0.00065746  57 t-inv F
 -0.307692 -0.153846 -0.222222    0.00065746  58 t-inv F
 -0.461538  0.307692  0.222222    0.00065746  58 t-inv F
  0.461538 -0.307692 -0.222222    0.00065746  58 t-inv F
  0.153846 -0.461538  0.222222    0.00065746  58 t-inv F
 -0.153846  0.461538 -0.222222    0.00065746  58 t-inv F
  0.307692 -0.461538 -0.222222    0.00065746  58 t-inv F
 -0.307692  0.461538  0.222222    0.00065746  58 t-inv F
 -0.461538  0.153846 -0.222222    0.00065746  58 t-inv F
  0.461538 -0.153846  0.222222    0.00065746  58 t-inv F
  0.153846  0.307692 -0.222222    0.00065746  58 t-inv F
 -0.153846 -0.307692  0.222222    0.00065746  58 t-inv F
 -0.153846  0.461538  0.222222    0.00065746  58 t-inv F
  0.153846 -0.461538 -0.222222    0.00065746  58 t-inv F
 -0.307692 -0.153846  0.222222    0.00065746  58 t-inv F
  0.307692  0.153846 -0.222222    0.00065746  58 t-inv F
  0.461538 -0.307692  0.222222    0.00065746  58 t-inv F
 -0.461538  0.307692 -0.222222    0.00065746  58 t-inv F
 -0.153846 -0.307692 -0.222222    0.00065746  58 t-inv F
  0.153846  0.307692  0.222222    0.00065746  58 t-inv F
 -0.307692  0.461538 -0.222222    0.00065746  58 t-inv F
  0.307692 -0.461538  0.222222    0.00065746  58 t-inv F
  0.461538 -0.153846 -0.222222    0.00065746  58 t-inv F
 -0.461538  0.153846  0.222222    0.00065746  58 t-inv F
 -0.384615 -0.153846 -0.222222    0.00065746  59 t-inv F
 -0.538462  0.384615  0.222222    0.00065746  59 t-inv F
  0.538462 -0.384615 -0.222222    0.00065746  59 t-inv F
  0.153846 -0.538462  0.222222    0.00065746  59 t-inv F
 -0.153846  0.538462 -0.222222    0.00065746  59 t-inv F
  0.384615 -0.538462 -0.222222    0.00065746  59 t-inv F
 -0.384615  0.538462  0.222222    0.00065746  59 t-inv F
 -0.538462  0.153846 -0.222222    0.00065746  59 t-inv F
  0.538462 -0.153846  0.222222    0.00065746  59 t-inv F
  0.153846  0.384615 -0.222222    0.00065746  59 t-inv F
 -0.153846 -0.384615  0.222222    0.00065746  59 t-inv F
 -0.153846  0.538462  0.222222    0.00065746  59 t-inv F
  0.153846 -0.538462 -0.222222    0.00065746  59 t-inv F
 -0.384615 -0.153846  0.222222    0.00065746  59 t-inv F
  0.384615  0.153846 -0.222222    0.00065746  59 t-inv F
  0.538462 -0.384615  0.222222    0.00065746  59 t-inv F
 -0.538462  0.384615 -0.222222    0.00065746  59 t-inv F
 -0.153846 -0.384615 -0.222222    0.00065746  59 t-inv F
  0.153846  0.384615  0.222222    0.00065746  59 t-inv F
 -0.384615  0.538462 -0.222222    0.00065746  59 t-inv F
  0.384615 -0.538462  0.222222    0.00065746  59 t-inv F
  0.538462 -0.153846 -0.222222    0.00065746  59 t-inv F
 -0.538462  0.153846  0.222222    0.00065746  59 t-inv F
 -0.230769 -0.230769 -0.222222    0.00065746  60 t-inv F
 -0.461538  0.230769  0.222222    0.00065746  60 t-inv F
  0.461538 -0.230769 -0.222222    0.00065746  60 t-inv F
  0.230769 -0.461538  0.222222    0.00065746  60 t-inv F
 -0.230769  0.461538 -0.222222    0.00065746  60 t-inv F
  0.230769 -0.461538 -0.222222    0.00065746  60 t-inv F
 -0.230769  0.461538  0.222222    0.00065746  60 t-inv F
 -0.461538  0.230769 -0.222222    0.00065746  60 t-inv F
  0.461538 -0.230769  0.222222    0.00065746  60 t-inv F
  0.230769  0.230769 -0.222222    0.00065746  60 t-inv F
 -0.230769 -0.230769  0.222222    0.00065746  60 t-inv F
 -0.307692 -0.230769 -0.222222    0.00065746  61 t-inv F
 -0.538462  0.307692  0.222222    0.00065746  61 t-inv F
  0.538462 -0.307692 -0.222222    0.00065746  61 t-inv F
  0.230769 -0.538462  0.222222    0.00065746  61 t-inv F
 -0.230769  0.538462 -0.222222    0.00065746  61 t-inv F
  0.307692 -0.538462 -0.222222    0.00065746  61 t-inv F
 -0.307692  0.538462  0.222222    0.00065746  61 t-inv F
 -0.538462  0.230769 -0.222222    0.00065746  61 t-inv F
  0.538462 -0.230769  0.222222    0.00065746  61 t-inv F
  0.230769  0.307692 -0.222222    0.00065746  61 t-inv F
 -0.230769 -0.307692  0.222222    0.00065746  61 t-inv F
 -0.230769  0.538462  0.222222    0.00065746  61 t-inv F
  0.230769 -0.538462 -0.222222    0.00065746  61 t-inv F
 -0.307692 -0.230769  0.222222    0.00065746  61 t-inv F
  0.307692  0.230769 -0.222222    0.00065746  61 t-inv F
  0.538462 -0.307692  0.222222    0.00065746  61 t-inv F
 -0.538462  0.307692 -0.222222    0.00065746  61 t-inv F
 -0.230769 -0.307692 -0.222222    0.00065746  61 t-inv F
  0.230769  0.307692  0.222222    0.00065746  61 t-inv F
 -0.307692  0.538462 -0.222222    0.00065746  61 t-inv F
  0.307692 -0.538462  0.222222    0.00065746  61 t-inv F
  0.538462 -0.230769 -0.222222    0.00065746  61 t-inv F
 -0.538462  0.230769  0.222222    0.00065746  61 t-inv F
 -0.384615 -0.230769 -0.222222    0.00065746  62 t-inv F
 -0.615385  0.384615  0.222222    0.00065746  62 t-inv F
  0.615385 -0.384615 -0.222222    0.00065746  62 t-inv F
  0.230769 -0.615385  0.222222    0.00065746  62 t-inv F
 -0.230769  0.615385 -0.222222    0.00065746  62 t-inv F
  0.384615 -0.615385 -0.222222    0.00065746  62 t-inv F
 -0.384615  0.615385  0.222222    0.00065746  62 t-inv F
 -0.615385  0.230769 -0.222222    0.00065746  62 t-inv F
  0.615385 -0.230769  0.222222    0.00065746  62 t-inv F
  0.230769  0.384615 -0.222222    0.00065746  62 t-inv F
 -0.230769 -0.384615  0.222222    0.00065746  62 t-inv F
 -0.307692 -0.307692 -0.222222    0.00065746  63 t-inv F
 -0.615385  0.307692  0.222222    0.00065746  63 t-inv F
  0.615385 -0.307692 -0.222222    0.00065746  63 t-inv F
  0.307692 -0.615385  0.222222    0.00065746  63 t-inv F
 -0.307692  0.615385 -0.222222    0.00065746  63 t-inv F
  0.307692 -0.615385 -0.222222    0.00065746  63 t-inv F
 -0.307692  0.615385  0.222222    0.00065746  63 t-inv F
 -0.615385  0.307692 -0.222222    0.00065746  63 t-inv F
  0.615385 -0.307692  0.222222    0.00065746  63 t-inv F
  0.307692  0.307692 -0.222222    0.00065746  63 t-inv F
 -0.307692 -0.307692  0.222222    0.00065746  63 t-inv F
  0.000000  0.000000 -0.333333    0.00065746  64 t-inv F
 -0.076923  0.000000 -0.333333    0.00065746  65 t-inv F
 -0.076923  0.076923  0.333333    0.00065746  65 t-inv F
  0.076923 -0.076923 -0.333333    0.00065746  65 t-inv F
 -0.000000 -0.076923  0.333333    0.00065746  65 t-inv F
  0.000000  0.076923 -0.333333    0.00065746  65 t-inv F
  0.000000  0.076923  0.333333    0.00065746  65 t-inv F
 -0.000000 -0.076923 -0.333333    0.00065746  65 t-inv F
 -0.076923  0.000000  0.333333    0.00065746  65 t-inv F
  0.076923 -0.000000 -0.333333    0.00065746  65 t-inv F
  0.076923 -0.076923  0.333333    0.00065746  65 t-inv F
 -0.076923  0.076923 -0.333333    0.00065746  65 t-inv F
 -0.153846  0.000000 -0.333333    0.00065746  66 t-inv F
 -0.153846  0.153846  0.333333    0.00065746  66 t-inv F
  0.153846 -0.153846 -0.333333    0.00065746  66 t-inv F
 -0.000000 -0.153846  0.333333    0.00065746  66 t-inv F
  0.000000  0.153846 -0.333333    0.00065746  66 t-inv F
  0.000000  0.153846  0.333333    0.00065746  66 t-inv F
 -0.000000 -0.153846 -0.333333    0.00065746  66 t-inv F
 -0.153846  0.000000  0.333333    0.00065746  66 t-inv F
  0.153846 -0.000000 -0.333333    0.00065746  66 t-inv F
  0.153846 -0.153846  0.333333    0.00065746  66 t-inv F
 -0.153846  0.153846 -0.333333    0.00065746  66 t-inv F
 -0.230769  0.000000 -0.333333    0.00065746  67 t-inv F
 -0.230769  0.230769  0.333333    0.00065746  67 t-inv F
  0.230769 -0.230769 -0.333333    0.00065746  67 t-inv F
 -0.000000 -0.230769  0.333333    0.00065746  67 t-inv F
  0.000000  0.230769 -0.333333    0.00065746  67 t-inv F
  0.000000  0.230769  0.333333    0.00065746  67 t-inv F
 -0.000000 -0.230769 -0.333333    0.00065746  67 t-inv F
 -0.230769  0.000000  0.333333    0.00065746  67 t-inv F
  0.230769 -0.000000 -0.333333    0.00065746  67 t-inv F
  0.230769 -0.230769  0.333333    0.00065746  67 t-inv F
 -0.230769  0.230769 -0.333333    0.00065746  67 t-inv F
 -0.307692  0.000000 -0.333333    0.00065746  68 t-inv F
 -0.307692  0.307692  0.333333    0.00065746  68 t-inv F
  0.307692 -0.307692 -0.333333    0.00065746  68 t-inv F
 -0.000000 -0.307692  0.333333    0.00065746  68 t-inv F
  0.000000  0.307692 -0.333333    0.00065746  68 t-inv F
  0.000000  0.307692  0.333333    0.00065746  68 t-inv F
 -0.000000 -0.307692 -0.333333    0.00065746  68 t-inv F
 -0.307692  0.000000  0.333333    0.00065746  68 t-inv F
  0.307692 -0.000000 -0.333333    0.00065746  68 t-inv F
  0.307692 -0.307692  0.333333    0.00065746  68 t-inv F
 -0.307692  0.307692 -0.333333    0.00065746  68 t-inv F
 -0.384615  0.000000 -0.333333    0.00065746  69 t-inv F
 -0.384615  0.384615  0.333333    0.00065746  69 t-inv F
  0.384615 -0.384615 -0.333333    0.00065746  69 t-inv F
 -0.000000 -0.384615  0.333333    0.00065746  69 t-inv F
  0.000000  0.384615 -0.333333    0.00065746  69 t-inv F
  0.000000  0.384615  0.333333    0.00065746  69 t-inv F
 -0.000000 -0.384615 -0.333333    0.00065746  69 t-inv F
 -0.384615  0.000000  0.333333    0.00065746  69 t-inv F
  0.384615 -0.000000 -0.333333    0.00065746  69 t-inv F
  0.384615 -0.384615  0.333333    0.00065746  69 t-inv F
 -0.384615  0.384615 -0.333333    0.00065746  69 t-inv F
 -0.461538  0.000000 -0.333333    0.00065746  70 t-inv F
 -0.461538  0.461538  0.333333    0.00065746  70 t-inv F
  0.461538 -0.461538 -0.333333    0.00065746  70 t-inv F
 -0.000000 -0.461538  0.333333    0.00065746  70 t-inv F
  0.000000  0.461538 -0.333333    0.00065746  70 t-inv F
  0.000000  0.461538  0.333333    0.00065746  70 t-inv F
 -0.000000 -0.461538 -0.333333    0.00065746  70 t-inv F
 -0.461538  0.000000  0.333333    0.00065746  70 t-inv F
  0.461538 -0.000000 -0.333333    0.00065746  70 t-inv F
  0.461538 -0.461538  0.333333    0.00065746  70 t-inv F
 -0.461538  0.461538 -0.333333    0.00065746  70 t-inv F
 -0.076923 -0.076923 -0.333333    0.00065746  71 t-inv F
 -0.153846  0.076923  0.333333    0.00065746  71 t-inv F
  0.153846 -0.076923 -0.333333    0.00065746  71 t-inv F
  0.076923 -0.153846  0.333333    0.00065746  71 t-inv F
 -0.076923  0.153846 -0.333333    0.00065746  71 t-inv F
  0.076923 -0.153846 -0.333333    0.00065746  71 t-inv F
 -0.076923  0.153846  0.333333    0.00065746  71 t-inv F
 -0.153846  0.076923 -0.333333    0.00065746  71 t-inv F
  0.153846 -0.076923  0.333333    0.00065746  71 t-inv F
  0.076923  0.076923 -0.333333    0.00065746  71 t-inv F
 -0.076923 -0.076923  0.333333    0.00065746  71 t-inv F
 -0.153846 -0.076923 -0.333333    0.00065746  72 t-inv F
 -0.230769  0.153846  0.333333    0.00065746  72 t-inv F
  0.230769 -0.153846 -0.333333    0.00065746  72 t-inv F
  0.076923 -0.230769  0.333333    0.00065746  72 t-inv F
 -0.076923  0.230769 -0.333333    0.00065746  72 t-inv F
  0.153846 -0.230769 -0.333333    0.00065746  72 t-inv F
 -0.153846  0.230769  0.333333    0.00065746  72 t-inv F
 -0.230769  0.076923 -0.333333    0.00065746  72 t-inv F
  0.230769 -0.076923  0.333333    0.00065746  72 t-inv F
  0.076923  0.153846 -0.333333    0.00065746  72 t-inv F
 -0.076923 -0.153846  0.333333    0.00065746  72 t-inv F
 -0.076923  0.230769  0.333333    0.00065746  72 t-inv F
  0.076923 -0.230769 -0.333333    0.00065746  72 t-inv F
 -0.153846 -0.076923  0.333333    0.00065746  72 t-inv F
  0.153846  0.076923 -0.333333    0.00065746  72 t-inv F
  0.230769 -0.153846  0.333333    0.00065746  72 t-inv F
 -0.230769  0.153846 -0.333333    0.00065746  72 t-inv F
 -0.076923 -0.153846 -0.333333    0.00065746  72 t-inv F
  0.076923  0.153846  0.333333    0.00065746  72 t-inv F
 -0.153846  0.230769 -0.333333    0.00065746  72 t-inv F
  0.153846 -0.230769  0.333333    0.00065746  72 t-inv F
  0.230769 -0.076923 -0.333333    0.00065746  72 t-inv F
 -0.230769  0.076923  0.333333    0.00065746  72 t-inv F
 -0.230769 -0.076923 -0.333333    0.00065746  73 t-inv F
 -0.307692  0.230769  0.333333    0.00065746  73 t-inv F
  0.307692 -0.230769 -0.333333    0.00065746  73 t-inv F
  0.076923 -0.307692  0.333333    0.00065746  73 t-inv F
 -0.076923  0.307692 -0.333333    0.00065746  73 t-inv F
  0.230769 -0.307692 -0.333333    0.00065746  73 t-inv F
 -0.230769  0.307692  0.333333    0.00065746  73 t-inv F
 -0.307692  0.076923 -0.333333    0.00065746  73 t-inv F
[...]
          X           Y           Z          XY          YZ          ZX
  --------------------------------------------------------------------------------
  x    -0.00000     0.00000    -0.00000    -1.90272     0.00000     0.00000
  y    -1.90272     1.90272     0.00000     0.00000     0.00000     0.00000
  z    -0.00000    -0.00000     0.00000     0.00000     0.00000    -0.00000

 INTERNAL STRAIN TENSOR FOR ION    2 for displacements in x,y,z  (eV/Angst):
          X           Y           Z          XY          YZ          ZX
  --------------------------------------------------------------------------------
  x     0.00000    -0.00000     0.00000     1.90272     0.00000     0.00000
  y     1.90272    -1.90272    -0.00000    -0.00000     0.00000     0.00000
  z     0.00000     0.00000    -0.00000    -0.00000    -0.00000     0.00000


--------------------------------------------------------------------------------------------------------


 
 Eigenvectors and eigenvalues of the dynamical matrix
 ----------------------------------------------------
 
 
   1 f  =    6.716034 THz    42.198086 2PiTHz  224.022775 cm-1    27.775294 meV
             X         Y         Z           dx          dy          dz
     -0.000001  1.916815  1.291641     0.000000    0.000000    0.707107  
      1.660011  0.958406  3.874922    -0.000000    0.000000   -0.707107  
 
   2 f  =    4.051816 THz    25.458310 2PiTHz  135.154027 cm-1    16.756970 meV
             X         Y         Z           dx          dy          dz
     -0.000001  1.916815  1.291641     0.614780    0.349350    0.000000  
      1.660011  0.958406  3.874922    -0.614780   -0.349350    0.000000  
 
   3 f  =    4.051815 THz    25.458305 2PiTHz  135.153997 cm-1    16.756966 meV
             X         Y         Z           dx          dy          dz
     -0.000001  1.916815  1.291641     0.349350   -0.614780   -0.000000  
      1.660011  0.958406  3.874922    -0.349350    0.614780   -0.000000  
 
   4 f  =    0.000000 THz     0.000000 2PiTHz    0.000002 cm-1     0.000000 meV
             X         Y         Z           dx          dy          dz
     -0.000001  1.916815  1.291641     0.015926    0.164460   -0.687531  
      1.660011  0.958406  3.874922     0.015926    0.164460   -0.687531  
 
   5 f/i=    0.000000 THz     0.000000 2PiTHz    0.000000 cm-1     0.000000 meV
             X         Y         Z           dx          dy          dz
     -0.000001  1.916815  1.291641     0.213662    0.654423    0.161490  
      1.660011  0.958406  3.874922     0.213662    0.654423    0.161490  
 
   6 f/i=    0.000000 THz     0.000000 2PiTHz    0.000001 cm-1     0.000000 meV
             X         Y         Z           dx          dy          dz
     -0.000001  1.916815  1.291641    -0.673866    0.211385    0.034955  
      1.660011  0.958406  3.874922    -0.673866    0.211385    0.034955  
 


--------------------------------------------------------------------------------------------------------



 ELASTIC MODULI CONTR FROM IONIC RELAXATION (kBar)
 Direction    XX          YY          ZZ          XY          YZ          ZX
 --------------------------------------------------------------------------------
 XX         -77.8921     77.8921      0.0000     -0.0000      0.0000     -0.0000
 YY          77.8921    -77.8920     -0.0000     -0.0000      0.0000     -0.0000
 ZZ           0.0000     -0.0000     -0.0000     -0.0000     -0.0000      0.0000
 XY          -0.0000     -0.0000     -0.0000    -77.8921     -0.0000      0.0000
 YZ           0.0000      0.0000     -0.0000     -0.0000     -0.0000      0.0000
 ZX          -0.0000     -0.0000      0.0000      0.0000      0.0000     -0.0000
 --------------------------------------------------------------------------------


 TOTAL ELASTIC MODULI (kBar)
 Direction    XX          YY          ZZ          XY          YZ          ZX
 --------------------------------------------------------------------------------
 XX         997.1080    385.9770    301.3573      0.0002     -0.0000     -0.0000
 YY         385.9770    997.1075    301.3572      0.0002      0.0000     -0.0000
 ZZ         301.3573    301.3572   1009.5978      0.0001      0.0000      0.0000
 XY           0.0002      0.0002      0.0001    305.5654     -0.0000      0.0000
 YZ          -0.0000     -0.0000      0.0000     -0.0000    314.1528      0.0001
 ZX          -0.0000      0.0000      0.0000     -0.0000      0.0001    314.1531
 --------------------------------------------------------------------------------



--------------------------------------------------------------------------------------------------------


  LATTYP: Found a hexagonal cell.
 ALAT       =     3.3200189025
 C/A-ratio  =     1.5561846377
  
  Lattice vectors:
  
 A1 = (   3.3200189111,   0.0000000091,   0.0000000000)
 A2 = (  -1.6600089262,   2.8752203934,   0.0000000000)
 A3 = (   0.0000000000,   0.0000000000,   5.1665624128)


Analysis of symmetry for initial positions (statically):
=====================================================================
 Subroutine PRICEL returns:
 Original cell was already a primitive cell.
 

 Routine SETGRP: Setting up the symmetry group for a 
 hexagonal supercell.


 Subroutine GETGRP returns: Found 24 space group operations
 (whereof 12 operations were pure point group operations)
 out of a pool of 24 trial point group operations.


The static configuration has the point symmetry D_3d.
 The point group associated with its full space group is D_6h.


Analysis of symmetry for dynamics (positions and initial velocities):
=====================================================================
 Subroutine PRICEL returns:
 Original cell was already a primitive cell.
 

 Routine SETGRP: Setting up the symmetry group for a 
 hexagonal supercell.


 Subroutine GETGRP returns: Found 24 space group operations
 (whereof 12 operations were pure point group operations)
 out of a pool of 24 trial point group operations.


The dynamic configuration has the point symmetry D_3d.
 The point group associated with its full space group is D_6h.


 Subroutine INISYM returns: Found 24 space group operations
 (whereof 12 operations are pure point group operations),
 and found     1 'primitive' translations

 
 KPOINTS: k points                                

Automatic generation of k-mesh.
Space group operators:
 irot       det(A)        alpha          n_x          n_y          n_z        tau_x        tau_y        tau_z
    1     1.000000     0.000000     1.000000     0.000000     0.000000     0.000000     0.000000     0.000000
    2    -1.000000     0.000000     1.000000     0.000000     0.000000     0.000000     0.000000     0.000000
    3     1.000000   120.000000     0.000000     0.000000    -1.000000     0.000000     0.000000     0.000000
    4    -1.000000   120.000000     0.000000     0.000000    -1.000000     0.000000     0.000000     0.000000
    5     1.000000   120.000000     0.000000     0.000000     1.000000     0.000000     0.000000     0.000000
    6    -1.000000   120.000000     0.000000     0.000000     1.000000     0.000000     0.000000     0.000000
    7     1.000000   179.999999     1.000000    -0.000000     0.000000     0.000000     0.000000     0.000000
    8    -1.000000   179.999999     1.000000    -0.000000     0.000000     0.000000     0.000000     0.000000
    9     1.000000   180.000000     0.500000    -0.866025     0.000000     0.000000     0.000000     0.000000
   10    -1.000000   180.000000     0.500000    -0.866025     0.000000     0.000000     0.000000     0.000000
   11     1.000000   180.000000    -0.500000    -0.866025     0.000000     0.000000     0.000000     0.000000
   12    -1.000000   180.000000    -0.500000    -0.866025     0.000000     0.000000     0.000000     0.000000
   13     1.000000    60.000000     0.000000     0.000000    -1.000000     0.000001    -0.000000    -0.500000
   14    -1.000000    60.000000     0.000000     0.000000    -1.000000     0.000000     0.000000    -0.500000
   15     1.000000   180.000000     0.000000     0.000000     1.000000     0.000000     0.000000    -0.500000
   16    -1.000000   180.000000     0.000000     0.000000     1.000000     0.000000     0.000000    -0.500000
   17     1.000000    60.000000     0.000000     0.000000     1.000000     0.000000     0.000000    -0.500000
   18    -1.000000    60.000000     0.000000     0.000000     1.000000     0.000000     0.000001    -0.500000
   19     1.000000   180.000000     0.866025    -0.500000     0.000000     0.000000     0.000000    -0.500000
   20    -1.000000   180.000000     0.866025    -0.500000     0.000000     0.000000     0.000000    -0.500000
   21     1.000000   180.000000     0.000000    -1.000000     0.000000     0.000000     0.000000    -0.500000
   22    -1.000000   180.000000     0.000000    -1.000000     0.000000     0.000001    -0.000000    -0.500000
   23     1.000000   179.999999     0.866025     0.500000     0.000000     0.000000     0.000001    -0.500000
   24    -1.000000   179.999999     0.866025     0.500000     0.000000     0.000000     0.000000    -0.500000
 
 Subroutine IBZKPT returns following result:
 ===========================================
 
 Found    105 irreducible k-points:
 
 Following reciprocal coordinates:
            Coordinates               Weight
  0.000000  0.000000  0.000000      1.000000
  0.076923 -0.000000  0.000000      6.000000
  0.153846 -0.000000  0.000000      6.000000
  0.230769 -0.000000  0.000000      6.000000
  0.307692 -0.000000  0.000000      6.000000
  0.384615 -0.000000  0.000000      6.000000
  0.461538 -0.000000  0.000000      6.000000
  0.076923  0.076923  0.000000      6.000000
  0.153846  0.076923  0.000000     12.000000
  0.230769  0.076923  0.000000     12.000000
  0.307692  0.076923  0.000000     12.000000
  0.384615  0.076923  0.000000     12.000000
  0.461538  0.076923  0.000000      6.000000
  0.153846  0.153846  0.000000      6.000000
  0.230769  0.153846  0.000000     12.000000
  0.307692  0.153846  0.000000     12.000000
  0.384615  0.153846  0.000000     12.000000
  0.230769  0.230769  0.000000      6.000000
  0.307692  0.230769  0.000000     12.000000
  0.384615  0.230769  0.000000      6.000000
  0.307692  0.307692  0.000000      6.000000
  0.000000  0.000000  0.111111      2.000000
  0.076923 -0.000000  0.111111     12.000000
  0.153846 -0.000000  0.111111     12.000000
  0.230769 -0.000000  0.111111     12.000000
  0.307692 -0.000000  0.111111     12.000000
  0.384615 -0.000000  0.111111     12.000000
  0.461538 -0.000000  0.111111     12.000000
  0.076923  0.076923  0.111111     12.000000
  0.153846  0.076923  0.111111     24.000000
  0.230769  0.076923  0.111111     24.000000
  0.307692  0.076923  0.111111     24.000000
  0.384615  0.076923  0.111111     24.000000
  0.461538  0.076923  0.111111     12.000000
  0.153846  0.153846  0.111111     12.000000
  0.230769  0.153846  0.111111     24.000000
  0.307692  0.153846  0.111111     24.000000
  0.384615  0.153846  0.111111     24.000000
  0.230769  0.230769  0.111111     12.000000
  0.307692  0.230769  0.111111     24.000000
  0.384615  0.230769  0.111111     12.000000
  0.307692  0.307692  0.111111     12.000000
  0.000000  0.000000  0.222222      2.000000
  0.076923 -0.000000  0.222222     12.000000
  0.153846 -0.000000  0.222222     12.000000
  0.230769 -0.000000  0.222222     12.000000
  0.307692 -0.000000  0.222222     12.000000
  0.384615 -0.000000  0.222222     12.000000
  0.461538 -0.000000  0.222222     12.000000
  0.076923  0.076923  0.222222     12.000000
  0.153846  0.076923  0.222222     24.000000
  0.230769  0.076923  0.222222     24.000000
  0.307692  0.076923  0.222222     24.000000
  0.384615  0.076923  0.222222     24.000000
  0.461538  0.076923  0.222222     12.000000
  0.153846  0.153846  0.222222     12.000000
  0.230769  0.153846  0.222222     24.000000
  0.307692  0.153846  0.222222     24.000000
  0.384615  0.153846  0.222222     24.000000
  0.230769  0.230769  0.222222     12.000000
  0.307692  0.230769  0.222222     24.000000
  0.384615  0.230769  0.222222     12.000000
  0.307692  0.307692  0.222222     12.000000
  0.000000  0.000000  0.333333      2.000000
  0.076923 -0.000000  0.333333     12.000000
  0.153846 -0.000000  0.333333     12.000000
  0.230769 -0.000000  0.333333     12.000000
  0.307692 -0.000000  0.333333     12.000000
  0.384615 -0.000000  0.333333     12.000000
  0.461538 -0.000000  0.333333     12.000000
  0.076923  0.076923  0.333333     12.000000
  0.153846  0.076923  0.333333     24.000000
  0.230769  0.076923  0.333333     24.000000
  0.307692  0.076923  0.333333     24.000000
  0.384615  0.076923  0.333333     24.000000
  0.461538  0.076923  0.333333     12.000000
  0.153846  0.153846  0.333333     12.000000
  0.230769  0.153846  0.333333     24.000000
  0.307692  0.153846  0.333333     24.000000
  0.384615  0.153846  0.333333     24.000000
  0.230769  0.230769  0.333333     12.000000
  0.307692  0.230769  0.333333     24.000000
  0.384615  0.230769  0.333333     12.000000
  0.307692  0.307692  0.333333     12.000000
  0.000000  0.000000  0.444444      2.000000
  0.076923 -0.000000  0.444444     12.000000
  0.153846 -0.000000  0.444444     12.000000
  0.230769 -0.000000  0.444444     12.000000
  0.307692 -0.000000  0.444444     12.000000
  0.384615 -0.000000  0.444444     12.000000
  0.461538 -0.000000  0.444444     12.000000
  0.076923  0.076923  0.444444     12.000000
  0.153846  0.076923  0.444444     24.000000
  0.230769  0.076923  0.444444     24.000000
  0.307692  0.076923  0.444444     24.000000
  0.384615  0.076923  0.444444     24.000000
  0.461538  0.076923  0.444444     12.000000
  0.153846  0.153846  0.444444     12.000000
  0.230769  0.153846  0.444444     24.000000
  0.307692  0.153846  0.444444     24.000000
  0.384615  0.153846  0.444444     24.000000
  0.230769  0.230769  0.444444     12.000000
  0.307692  0.230769  0.444444     24.000000
  0.384615  0.230769  0.444444     12.000000
  0.307692  0.307692  0.444444     12.000000
 
 Following cartesian coordinates:
            Coordinates               Weight
  0.000000  0.000000  0.000000      1.000000
  0.023169  0.013377  0.000000      6.000000
  0.046339  0.026754  0.000000      6.000000
  0.069508  0.040131  0.000000      6.000000
  0.092678  0.053508  0.000000      6.000000
  0.115847  0.066884  0.000000      6.000000
  0.139017  0.080261  0.000000      6.000000
  0.023169  0.040131  0.000000      6.000000
  0.046339  0.053508  0.000000     12.000000
  0.069508  0.066884  0.000000     12.000000
  0.092678  0.080261  0.000000     12.000000
  0.115847  0.093638  0.000000     12.000000
  0.139017  0.107015  0.000000      6.000000
  0.046339  0.080261  0.000000      6.000000
  0.069508  0.093638  0.000000     12.000000
  0.092678  0.107015  0.000000     12.000000
  0.115847  0.120392  0.000000     12.000000
  0.069508  0.120392  0.000000      6.000000
  0.092678  0.133769  0.000000     12.000000
  0.115847  0.147146  0.000000      6.000000
  0.092678  0.160523  0.000000      6.000000
  0.000000  0.000000  0.021506      2.000000
  0.023169  0.013377  0.021506     12.000000
  0.046339  0.026754  0.021506     12.000000
  0.069508  0.040131  0.021506     12.000000
  0.092678  0.053508  0.021506     12.000000
  0.115847  0.066884  0.021506     12.000000
  0.139017  0.080261  0.021506     12.000000
  0.023169  0.040131  0.021506     12.000000
  0.046339  0.053508  0.021506     24.000000
  0.069508  0.066884  0.021506     24.000000
  0.092678  0.080261  0.021506     24.000000
  0.115847  0.093638  0.021506     24.000000
  0.139017  0.107015  0.021506     12.000000
  0.046339  0.080261  0.021506     12.000000
  0.069508  0.093638  0.021506     24.000000
  0.092678  0.107015  0.021506     24.000000
  0.115847  0.120392  0.021506     24.000000
  0.069508  0.120392  0.021506     12.000000
  0.092678  0.133769  0.021506     24.000000
  0.115847  0.147146  0.021506     12.000000
  0.092678  0.160523  0.021506     12.000000
  0.000000  0.000000  0.043012      2.000000
  0.023169  0.013377  0.043012     12.000000
  0.046339  0.026754  0.043012     12.000000
  0.069508  0.040131  0.043012     12.000000
  0.092678  0.053508  0.043012     12.000000
  0.115847  0.066884  0.043012     12.000000
  0.139017  0.080261  0.043012     12.000000
  0.023169  0.040131  0.043012     12.000000
  0.046339  0.053508  0.043012     24.000000
  0.069508  0.066884  0.043012     24.000000
  0.092678  0.080261  0.043012     24.000000
  0.115847  0.093638  0.043012     24.000000
  0.139017  0.107015  0.043012     12.000000
  0.046339  0.080261  0.043012     12.000000
  0.069508  0.093638  0.043012     24.000000
  0.092678  0.107015  0.043012     24.000000
  0.115847  0.120392  0.043012     24.000000
  0.069508  0.120392  0.043012     12.000000
  0.092678  0.133769  0.043012     24.000000
  0.115847  0.147146  0.043012     12.000000
  0.092678  0.160523  0.043012     12.000000
  0.000000  0.000000  0.064517      2.000000
  0.023169  0.013377  0.064517     12.000000
  0.046339  0.026754  0.064517     12.000000
  0.069508  0.040131  0.064517     12.000000
  0.092678  0.053508  0.064517     12.000000
  0.115847  0.066884  0.064517     12.000000
  0.139017  0.080261  0.064517     12.000000
  0.023169  0.040131  0.064517     12.000000
  0.046339  0.053508  0.064517     24.000000
  0.069508  0.066884  0.064517     24.000000
  0.092678  0.080261  0.064517     24.000000
  0.115847  0.093638  0.064517     24.000000
  0.139017  0.107015  0.064517     12.000000
  0.046339  0.080261  0.064517     12.000000
  0.069508  0.093638  0.064517     24.000000
  0.092678  0.107015  0.064517     24.000000
  0.115847  0.120392  0.064517     24.000000
  0.069508  0.120392  0.064517     12.000000
  0.092678  0.133769  0.064517     24.000000
  0.115847  0.147146  0.064517     12.000000
  0.092678  0.160523  0.064517     12.000000
  0.000000  0.000000  0.086023      2.000000
  0.023169  0.013377  0.086023     12.000000
  0.046339  0.026754  0.086023     12.000000
  0.069508  0.040131  0.086023     12.000000
  0.092678  0.053508  0.086023     12.000000
  0.115847  0.066884  0.086023     12.000000
  0.139017  0.080261  0.086023     12.000000
  0.023169  0.040131  0.086023     12.000000
  0.046339  0.053508  0.086023     24.000000
  0.069508  0.066884  0.086023     24.000000
  0.092678  0.080261  0.086023     24.000000
  0.115847  0.093638  0.086023     24.000000
  0.139017  0.107015  0.086023     12.000000
  0.046339  0.080261  0.086023     12.000000
  0.069508  0.093638  0.086023     24.000000
  0.092678  0.107015  0.086023     24.000000
  0.115847  0.120392  0.086023     24.000000
  0.069508  0.120392  0.086023     12.000000
  0.092678  0.133769  0.086023     24.000000
  0.115847  0.147146  0.086023     12.000000
  0.092678  0.160523  0.086023     12.000000
 
 writing wavefunctions
     LOOP+:  cpu time   74.1961: real time   74.3062
    4ORBIT:  cpu time    0.0000: real time    0.0000

 total amount of memory used by VASP MPI-rank0    62298. kBytes
=======================================================================

   base      :      30000. kBytes
   nonl-proj :      20424. kBytes
   fftplans  :        879. kBytes
   grid      :       1664. kBytes
   one-center:         31. kBytes
   wavefun   :       9300. kBytes
 
  
  
 General timing and accounting informations for this job:
 ========================================================
  
                  Total CPU time used (sec):     2803.787
                            User time (sec):     1048.560
                          System time (sec):     1755.227
                         Elapsed time (sec):     2808.635
  
                   Maximum memory used (kb):      302952.
                   Average memory used (kb):           0.
  
                          Minor page faults:       341869
                          Major page faults:          296
                 Voluntary context switches:         1825
