   2   2   1   0
  0.1942622E+02  0.3386929E-09  0.3386929E-09  0.3386929E-09  0.5000000E-15
   1.0000000000000000E-004
  CAR 
 unknown system                          
     11.27880508    -28.40973452  301      4.39724663      1.00000000
    -28.410  0.0000E+00  0.0000E+00  0.0000E+00  0.0000E+00
    -28.277  0.0000E+00  0.0000E+00  0.0000E+00  0.0000E+00
    -28.145  0.0000E+00  0.0000E+00  0.0000E+00  0.0000E+00
    -28.013  0.0000E+00  0.0000E+00  0.0000E+00  0.0000E+00
    -27.881  0.0000E+00  0.0000E+00  0.0000E+00  0.0000E+00
    -27.748  0.0000E+00  0.0000E+00  0.0000E+00  0.0000E+00
    -27.616  0.0000E+00  0.0000E+00  0.0000E+00  0.0000E+00
    -27.484  0.0000E+00  0.0000E+00  0.0000E+00  0.0000E+00
    -27.351  0.0000E+00  0.0000E+00  0.0000E+00  0.0000E+00
    -27.219  0.0000E+00  0.0000E+00  0.0000E+00  0.0000E+00
    -27.087  0.0000E+00  0.0000E+00  0.0000E+00  0.0000E+00
    -26.954  0.0000E+00  0.0000E+00  0.0000E+00  0.0000E+00
    -26.822  0.0000E+00  0.0000E+00  0.0000E+00  0.0000E+00
    -26.690  0.0000E+00  0.0000E+00  0.0000E+00  0.0000E+00
    -26.558  0.2003E+01  0.2028E+01  0.4615E-01  0.4740E-01
    -26.425  0.8346E+01  0.8369E+01  0.6639E+00  0.6687E+00
    -26.293  0.4824E+01  0.4817E+01  0.1529E+01  0.1531E+01
    -26.161  0.3899E+01  0.3903E+01  0.2023E+01  0.2025E+01
    -26.028  0.6512E+01  0.6502E+01  0.2657E+01  0.2660E+01
    -25.896  0.9413E+01  0.9484E+01  0.3375E+01  0.3380E+01
    -25.764  0.6473E+01  0.6514E+01  0.4199E+01  0.4202E+01
    -25.632  0.1234E+02  0.1234E+02  0.5435E+01  0.5440E+01
    -25.499  0.2733E+01  0.2733E+01  0.6000E+01  0.6000E+01
    -25.367  0.0000E+00  0.0000E+00  0.6000E+01  0.6000E+01
    -25.235  0.0000E+00  0.0000E+00  0.6000E+01  0.6000E+01
    -25.102  0.0000E+00  0.0000E+00  0.6000E+01  0.6000E+01
    -24.970  0.0000E+00  0.0000E+00  0.6000E+01  0.6000E+01
    -24.838  0.0000E+00  0.0000E+00  0.6000E+01  0.6000E+01
    -24.705  0.0000E+00  0.0000E+00  0.6000E+01  0.6000E+01
    -24.573  0.0000E+00  0.0000E+00  0.6000E+01  0.6000E+01
    -24.441  0.0000E+00  0.0000E+00  0.6000E+01  0.6000E+01
    -24.309  0.0000E+00  0.0000E+00  0.6000E+01  0.6000E+01
    -24.176  0.0000E+00  0.0000E+00  0.6000E+01  0.6000E+01
    -24.044  0.0000E+00  0.0000E+00  0.6000E+01  0.6000E+01
    -23.912  0.0000E+00  0.0000E+00  0.6000E+01  0.6000E+01
    -23.779  0.0000E+00  0.0000E+00  0.6000E+01  0.6000E+01
    -23.647  0.0000E+00  0.0000E+00  0.6000E+01  0.6000E+01
    -23.515  0.0000E+00  0.0000E+00  0.6000E+01  0.6000E+01
    -23.383  0.0000E+00  0.0000E+00  0.6000E+01  0.6000E+01
    -23.250  0.0000E+00  0.0000E+00  0.6000E+01  0.6000E+01
    -23.118  0.0000E+00  0.0000E+00  0.6000E+01  0.6000E+01
    -22.986  0.0000E+00  0.0000E+00  0.6000E+01  0.6000E+01
    -22.853  0.0000E+00  0.0000E+00  0.6000E+01  0.6000E+01
    -22.721  0.0000E+00  0.0000E+00  0.6000E+01  0.6000E+01
    -22.589  0.0000E+00  0.0000E+00  0.6000E+01  0.6000E+01
    -22.456  0.0000E+00  0.0000E+00  0.6000E+01  0.6000E+01
    -22.324  0.0000E+00  0.0000E+00  0.6000E+01  0.6000E+01
    -22.192  0.0000E+00  0.0000E+00  0.6000E+01  0.6000E+01
    -22.060  0.0000E+00  0.0000E+00  0.6000E+01  0.6000E+01
    -21.927  0.0000E+00  0.0000E+00  0.6000E+01  0.6000E+01
    -21.795  0.0000E+00  0.0000E+00  0.6000E+01  0.6000E+01
    -21.663  0.0000E+00  0.0000E+00  0.6000E+01  0.6000E+01
    -21.530  0.0000E+00  0.0000E+00  0.6000E+01  0.6000E+01
    -21.398  0.0000E+00  0.0000E+00  0.6000E+01  0.6000E+01
    -21.266  0.0000E+00  0.0000E+00  0.6000E+01  0.6000E+01
    -21.134  0.0000E+00  0.0000E+00  0.6000E+01  0.6000E+01
    -21.001  0.0000E+00  0.0000E+00  0.6000E+01  0.6000E+01
    -20.869  0.0000E+00  0.0000E+00  0.6000E+01  0.6000E+01
    -20.737  0.0000E+00  0.0000E+00  0.6000E+01  0.6000E+01
    -20.604  0.0000E+00  0.0000E+00  0.6000E+01  0.6000E+01
    -20.472  0.0000E+00  0.0000E+00  0.6000E+01  0.6000E+01
    -20.340  0.0000E+00  0.0000E+00  0.6000E+01  0.6000E+01
    -20.207  0.0000E+00  0.0000E+00  0.6000E+01  0.6000E+01
    -20.075  0.0000E+00  0.0000E+00  0.6000E+01  0.6000E+01
    -19.943  0.0000E+00  0.0000E+00  0.6000E+01  0.6000E+01
    -19.811  0.0000E+00  0.0000E+00  0.6000E+01  0.6000E+01
    -19.678  0.0000E+00  0.0000E+00  0.6000E+01  0.6000E+01
    -19.546  0.0000E+00  0.0000E+00  0.6000E+01  0.6000E+01
    -19.414  0.0000E+00  0.0000E+00  0.6000E+01  0.6000E+01
    -19.281  0.0000E+00  0.0000E+00  0.6000E+01  0.6000E+01
    -19.149  0.0000E+00  0.0000E+00  0.6000E+01  0.6000E+01
    -19.017  0.0000E+00  0.0000E+00  0.6000E+01  0.6000E+01
    -18.884  0.0000E+00  0.0000E+00  0.6000E+01  0.6000E+01
    -18.752  0.0000E+00  0.0000E+00  0.6000E+01  0.6000E+01
    -18.620  0.0000E+00  0.0000E+00  0.6000E+01  0.6000E+01
    -18.488  0.0000E+00  0.0000E+00  0.6000E+01  0.6000E+01
    -18.355  0.0000E+00  0.0000E+00  0.6000E+01  0.6000E+01
    -18.223  0.0000E+00  0.0000E+00  0.6000E+01  0.6000E+01
    -18.091  0.0000E+00  0.0000E+00  0.6000E+01  0.6000E+01
    -17.958  0.0000E+00  0.0000E+00  0.6000E+01  0.6000E+01
    -17.826  0.0000E+00  0.0000E+00  0.6000E+01  0.6000E+01
    -17.694  0.0000E+00  0.0000E+00  0.6000E+01  0.6000E+01
    -17.562  0.0000E+00  0.0000E+00  0.6000E+01  0.6000E+01
    -17.429  0.0000E+00  0.0000E+00  0.6000E+01  0.6000E+01
    -17.297  0.0000E+00  0.0000E+00  0.6000E+01  0.6000E+01
    -17.165  0.0000E+00  0.0000E+00  0.6000E+01  0.6000E+01
    -17.032  0.0000E+00  0.0000E+00  0.6000E+01  0.6000E+01
    -16.900  0.0000E+00  0.0000E+00  0.6000E+01  0.6000E+01
    -16.768  0.0000E+00  0.0000E+00  0.6000E+01  0.6000E+01
    -16.635  0.0000E+00  0.0000E+00  0.6000E+01  0.6000E+01
    -16.503  0.0000E+00  0.0000E+00  0.6000E+01  0.6000E+01
    -16.371  0.0000E+00  0.0000E+00  0.6000E+01  0.6000E+01
    -16.239  0.0000E+00  0.0000E+00  0.6000E+01  0.6000E+01
    -16.106  0.0000E+00  0.0000E+00  0.6000E+01  0.6000E+01
    -15.974  0.0000E+00  0.0000E+00  0.6000E+01  0.6000E+01
    -15.842  0.0000E+00  0.0000E+00  0.6000E+01  0.6000E+01
    -15.709  0.0000E+00  0.0000E+00  0.6000E+01  0.6000E+01
    -15.577  0.0000E+00  0.0000E+00  0.6000E+01  0.6000E+01
    -15.445  0.0000E+00  0.0000E+00  0.6000E+01  0.6000E+01
    -15.313  0.0000E+00  0.0000E+00  0.6000E+01  0.6000E+01
    -15.180  0.0000E+00  0.0000E+00  0.6000E+01  0.6000E+01
    -15.048  0.0000E+00  0.0000E+00  0.6000E+01  0.6000E+01
    -14.916  0.0000E+00  0.0000E+00  0.6000E+01  0.6000E+01
    -14.783  0.0000E+00  0.0000E+00  0.6000E+01  0.6000E+01
    -14.651  0.0000E+00  0.0000E+00  0.6000E+01  0.6000E+01
    -14.519  0.0000E+00  0.0000E+00  0.6000E+01  0.6000E+01
    -14.386  0.0000E+00  0.0000E+00  0.6000E+01  0.6000E+01
    -14.254  0.0000E+00  0.0000E+00  0.6000E+01  0.6000E+01
    -14.122  0.0000E+00  0.0000E+00  0.6000E+01  0.6000E+01
    -13.990  0.0000E+00  0.0000E+00  0.6000E+01  0.6000E+01
    -13.857  0.0000E+00  0.0000E+00  0.6000E+01  0.6000E+01
    -13.725  0.0000E+00  0.0000E+00  0.6000E+01  0.6000E+01
    -13.593  0.0000E+00  0.0000E+00  0.6000E+01  0.6000E+01
    -13.460  0.0000E+00  0.0000E+00  0.6000E+01  0.6000E+01
    -13.328  0.0000E+00  0.0000E+00  0.6000E+01  0.6000E+01
    -13.196  0.0000E+00  0.0000E+00  0.6000E+01  0.6000E+01
    -13.063  0.0000E+00  0.0000E+00  0.6000E+01  0.6000E+01
    -12.931  0.0000E+00  0.0000E+00  0.6000E+01  0.6000E+01
    -12.799  0.0000E+00  0.0000E+00  0.6000E+01  0.6000E+01
    -12.667  0.0000E+00  0.0000E+00  0.6000E+01  0.6000E+01
    -12.534  0.0000E+00  0.0000E+00  0.6000E+01  0.6000E+01
    -12.402  0.0000E+00  0.0000E+00  0.6000E+01  0.6000E+01
    -12.270  0.0000E+00  0.0000E+00  0.6000E+01  0.6000E+01
    -12.137  0.0000E+00  0.0000E+00  0.6000E+01  0.6000E+01
    -12.005  0.0000E+00  0.0000E+00  0.6000E+01  0.6000E+01
    -11.873  0.0000E+00  0.0000E+00  0.6000E+01  0.6000E+01
    -11.741  0.0000E+00  0.0000E+00  0.6000E+01  0.6000E+01
    -11.608  0.0000E+00  0.0000E+00  0.6000E+01  0.6000E+01
    -11.476  0.0000E+00  0.0000E+00  0.6000E+01  0.6000E+01
    -11.344  0.0000E+00  0.0000E+00  0.6000E+01  0.6000E+01
    -11.211  0.0000E+00  0.0000E+00  0.6000E+01  0.6000E+01
    -11.079  0.0000E+00  0.0000E+00  0.6000E+01  0.6000E+01
    -10.947  0.0000E+00  0.0000E+00  0.6000E+01  0.6000E+01
    -10.814  0.0000E+00  0.0000E+00  0.6000E+01  0.6000E+01
    -10.682  0.0000E+00  0.0000E+00  0.6000E+01  0.6000E+01
    -10.550  0.0000E+00  0.0000E+00  0.6000E+01  0.6000E+01
    -10.418  0.0000E+00  0.0000E+00  0.6000E+01  0.6000E+01
    -10.285  0.0000E+00  0.0000E+00  0.6000E+01  0.6000E+01
    -10.153  0.0000E+00  0.0000E+00  0.6000E+01  0.6000E+01
    -10.021  0.0000E+00  0.0000E+00  0.6000E+01  0.6000E+01
     -9.888  0.0000E+00  0.0000E+00  0.6000E+01  0.6000E+01
     -9.756  0.0000E+00  0.0000E+00  0.6000E+01  0.6000E+01
     -9.624  0.0000E+00  0.0000E+00  0.6000E+01  0.6000E+01
     -9.492  0.0000E+00  0.0000E+00  0.6000E+01  0.6000E+01
     -9.359  0.0000E+00  0.0000E+00  0.6000E+01  0.6000E+01
     -9.227  0.0000E+00  0.0000E+00  0.6000E+01  0.6000E+01
     -9.095  0.0000E+00  0.0000E+00  0.6000E+01  0.6000E+01
     -8.962  0.0000E+00  0.0000E+00  0.6000E+01  0.6000E+01
     -8.830  0.0000E+00  0.0000E+00  0.6000E+01  0.6000E+01
     -8.698  0.0000E+00  0.0000E+00  0.6000E+01  0.6000E+01
     -8.565  0.0000E+00  0.0000E+00  0.6000E+01  0.6000E+01
     -8.433  0.0000E+00  0.0000E+00  0.6000E+01  0.6000E+01
     -8.301  0.0000E+00  0.0000E+00  0.6000E+01  0.6000E+01
     -8.169  0.0000E+00  0.0000E+00  0.6000E+01  0.6000E+01
     -8.036  0.0000E+00  0.0000E+00  0.6000E+01  0.6000E+01
     -7.904  0.0000E+00  0.0000E+00  0.6000E+01  0.6000E+01
     -7.772  0.0000E+00  0.0000E+00  0.6000E+01  0.6000E+01
     -7.639  0.0000E+00  0.0000E+00  0.6000E+01  0.6000E+01
     -7.507  0.0000E+00  0.0000E+00  0.6000E+01  0.6000E+01
     -7.375  0.0000E+00  0.0000E+00  0.6000E+01  0.6000E+01
     -7.243  0.0000E+00  0.0000E+00  0.6000E+01  0.6000E+01
     -7.110  0.0000E+00  0.0000E+00  0.6000E+01  0.6000E+01
     -6.978  0.0000E+00  0.0000E+00  0.6000E+01  0.6000E+01
     -6.846  0.0000E+00  0.0000E+00  0.6000E+01  0.6000E+01
     -6.713  0.0000E+00  0.0000E+00  0.6000E+01  0.6000E+01
     -6.581  0.0000E+00  0.0000E+00  0.6000E+01  0.6000E+01
     -6.449  0.0000E+00  0.0000E+00  0.6000E+01  0.6000E+01
     -6.316  0.0000E+00  0.0000E+00  0.6000E+01  0.6000E+01
     -6.184  0.0000E+00  0.0000E+00  0.6000E+01  0.6000E+01
     -6.052  0.0000E+00  0.0000E+00  0.6000E+01  0.6000E+01
     -5.920  0.0000E+00  0.0000E+00  0.6000E+01  0.6000E+01
     -5.787  0.0000E+00  0.0000E+00  0.6000E+01  0.6000E+01
     -5.655  0.0000E+00  0.0000E+00  0.6000E+01  0.6000E+01
     -5.523  0.0000E+00  0.0000E+00  0.6000E+01  0.6000E+01
     -5.390  0.0000E+00  0.0000E+00  0.6000E+01  0.6000E+01
     -5.258  0.0000E+00  0.0000E+00  0.6000E+01  0.6000E+01
     -5.126  0.0000E+00  0.0000E+00  0.6000E+01  0.6000E+01
     -4.993  0.0000E+00  0.0000E+00  0.6000E+01  0.6000E+01
     -4.861  0.0000E+00  0.0000E+00  0.6000E+01  0.6000E+01
     -4.729  0.0000E+00  0.0000E+00  0.6000E+01  0.6000E+01
     -4.597  0.0000E+00  0.0000E+00  0.6000E+01  0.6000E+01
     -4.464  0.0000E+00  0.0000E+00  0.6000E+01  0.6000E+01
     -4.332  0.0000E+00  0.0000E+00  0.6000E+01  0.6000E+01
     -4.200  0.0000E+00  0.0000E+00  0.6000E+01  0.6000E+01
     -4.067  0.0000E+00  0.0000E+00  0.6000E+01  0.6000E+01
     -3.935  0.0000E+00  0.0000E+00  0.6000E+01  0.6000E+01
     -3.803  0.0000E+00  0.0000E+00  0.6000E+01  0.6000E+01
     -3.671  0.0000E+00  0.0000E+00  0.6000E+01  0.6000E+01
     -3.538  0.0000E+00  0.0000E+00  0.6000E+01  0.6000E+01
     -3.406  0.0000E+00  0.0000E+00  0.6000E+01  0.6000E+01
     -3.274  0.0000E+00  0.0000E+00  0.6000E+01  0.6000E+01
     -3.141  0.0000E+00  0.0000E+00  0.6000E+01  0.6000E+01
     -3.009  0.0000E+00  0.0000E+00  0.6000E+01  0.6000E+01
     -2.877  0.0000E+00  0.0000E+00  0.6000E+01  0.6000E+01
     -2.744  0.0000E+00  0.0000E+00  0.6000E+01  0.6000E+01
     -2.612  0.0000E+00  0.0000E+00  0.6000E+01  0.6000E+01
     -2.480  0.0000E+00  0.0000E+00  0.6000E+01  0.6000E+01
     -2.348  0.0000E+00  0.0000E+00  0.6000E+01  0.6000E+01
     -2.215  0.0000E+00  0.0000E+00  0.6000E+01  0.6000E+01
     -2.083  0.0000E+00  0.0000E+00  0.6000E+01  0.6000E+01
     -1.951  0.0000E+00  0.0000E+00  0.6000E+01  0.6000E+01
     -1.818  0.0000E+00  0.0000E+00  0.6000E+01  0.6000E+01
     -1.686  0.0000E+00  0.0000E+00  0.6000E+01  0.6000E+01
     -1.554  0.0000E+00  0.0000E+00  0.6000E+01  0.6000E+01
     -1.422  0.0000E+00  0.0000E+00  0.6000E+01  0.6000E+01
     -1.289  0.2017E-02  0.2131E-02  0.6000E+01  0.6000E+01
     -1.157  0.1144E-01  0.1171E-01  0.6001E+01  0.6001E+01
     -1.025  0.2856E-01  0.2899E-01  0.6003E+01  0.6004E+01
     -0.892  0.5049E-01  0.5086E-01  0.6009E+01  0.6009E+01
     -0.760  0.6482E-01  0.6502E-01  0.6016E+01  0.6017E+01
     -0.628  0.7078E-01  0.7084E-01  0.6025E+01  0.6026E+01
     -0.495  0.7603E-01  0.7618E-01  0.6035E+01  0.6035E+01
     -0.363  0.8572E-01  0.8595E-01  0.6046E+01  0.6046E+01
     -0.231  0.9916E-01  0.9943E-01  0.6058E+01  0.6058E+01
     -0.099  0.1137E+00  0.1140E+00  0.6072E+01  0.6072E+01
      0.034  0.1291E+00  0.1294E+00  0.6088E+01  0.6088E+01
      0.166  0.1428E+00  0.1430E+00  0.6106E+01  0.6107E+01
      0.298  0.1558E+00  0.1563E+00  0.6126E+01  0.6126E+01
      0.431  0.1816E+00  0.1821E+00  0.6148E+01  0.6149E+01
      0.563  0.2094E+00  0.2098E+00  0.6174E+01  0.6174E+01
      0.695  0.2345E+00  0.2349E+00  0.6203E+01  0.6204E+01
      0.827  0.2641E+00  0.2648E+00  0.6236E+01  0.6237E+01
      0.960  0.3282E+00  0.3296E+00  0.6275E+01  0.6276E+01
      1.092  0.5562E+00  0.5600E+00  0.6332E+01  0.6333E+01
      1.224  0.9257E+00  0.9307E+00  0.6430E+01  0.6432E+01
      1.357  0.1457E+01  0.1508E+01  0.6575E+01  0.6579E+01
      1.489  0.1263E+01  0.1257E+01  0.6769E+01  0.6772E+01
      1.621  0.9976E+00  0.9993E+00  0.6913E+01  0.6915E+01
      1.754  0.1080E+01  0.1082E+01  0.7046E+01  0.7048E+01
      1.886  0.1282E+01  0.1285E+01  0.7202E+01  0.7204E+01
      2.018  0.1769E+01  0.1773E+01  0.7407E+01  0.7410E+01
      2.150  0.2113E+01  0.2105E+01  0.7660E+01  0.7664E+01
      2.283  0.1692E+01  0.1640E+01  0.7919E+01  0.7921E+01
      2.415  0.7506E+00  0.7478E+00  0.8041E+01  0.8042E+01
      2.547  0.4994E+00  0.4979E+00  0.8116E+01  0.8117E+01
      2.680  0.4263E+00  0.4257E+00  0.8176E+01  0.8177E+01
      2.812  0.4211E+00  0.4214E+00  0.8232E+01  0.8232E+01
      2.944  0.1570E+01  0.1611E+01  0.8304E+01  0.8307E+01
      3.077  0.3329E+01  0.3366E+01  0.8577E+01  0.8583E+01
      3.209  0.3151E+01  0.3150E+01  0.8983E+01  0.8988E+01
      3.341  0.1577E+01  0.1562E+01  0.9301E+01  0.9304E+01
      3.473  0.9366E+00  0.9367E+00  0.9445E+01  0.9446E+01
      3.606  0.1081E+01  0.1085E+01  0.9579E+01  0.9581E+01
      3.738  0.1202E+01  0.1203E+01  0.9728E+01  0.9729E+01
      3.870  0.1383E+01  0.1386E+01  0.9896E+01  0.9898E+01
      4.003  0.1700E+01  0.1708E+01  0.1010E+02  0.1010E+02
      4.135  0.2146E+01  0.2151E+01  0.1035E+02  0.1036E+02
      4.267  0.2962E+01  0.2952E+01  0.1074E+02  0.1075E+02
      4.399  0.1616E+01  0.1611E+01  0.1100E+02  0.1100E+02
      4.532  0.1513E+01  0.1513E+01  0.1121E+02  0.1121E+02
      4.664  0.1324E+01  0.1319E+01  0.1140E+02  0.1140E+02
      4.796  0.7712E+00  0.7688E+00  0.1154E+02  0.1154E+02
      4.929  0.6607E+00  0.6589E+00  0.1163E+02  0.1163E+02
      5.061  0.5296E+00  0.5288E+00  0.1171E+02  0.1171E+02
      5.193  0.4827E+00  0.4819E+00  0.1178E+02  0.1178E+02
      5.326  0.4648E+00  0.4639E+00  0.1184E+02  0.1184E+02
      5.458  0.4064E+00  0.4055E+00  0.1190E+02  0.1190E+02
      5.590  0.3000E+00  0.2992E+00  0.1195E+02  0.1195E+02
      5.722  0.2215E+00  0.2210E+00  0.1198E+02  0.1198E+02
      5.855  0.4640E+00  0.4657E+00  0.1203E+02  0.1203E+02
      5.987  0.5158E+00  0.5170E+00  0.1209E+02  0.1209E+02
      6.119  0.6878E+00  0.6891E+00  0.1217E+02  0.1217E+02
      6.252  0.8582E+00  0.8595E+00  0.1227E+02  0.1227E+02
      6.384  0.1021E+01  0.1023E+01  0.1239E+02  0.1239E+02
      6.516  0.1159E+01  0.1160E+01  0.1254E+02  0.1254E+02
      6.648  0.1309E+01  0.1310E+01  0.1270E+02  0.1270E+02
      6.781  0.1444E+01  0.1445E+01  0.1288E+02  0.1289E+02
      6.913  0.1465E+01  0.1471E+01  0.1307E+02  0.1308E+02
      7.045  0.1946E+01  0.1947E+01  0.1330E+02  0.1330E+02
      7.178  0.1764E+01  0.1762E+01  0.1356E+02  0.1356E+02
      7.310  0.1538E+01  0.1537E+01  0.1377E+02  0.1378E+02
      7.442  0.1661E+01  0.1657E+01  0.1397E+02  0.1397E+02
      7.575  0.1231E+01  0.1230E+01  0.1416E+02  0.1416E+02
      7.707  0.1225E+01  0.1225E+01  0.1432E+02  0.1432E+02
      7.839  0.1683E+01  0.1682E+01  0.1451E+02  0.1451E+02
      7.971  0.2972E+01  0.2977E+01  0.1476E+02  0.1476E+02
      8.104  0.3893E+01  0.3883E+01  0.1536E+02  0.1535E+02
      8.236  0.1456E+01  0.1437E+01  0.1557E+02  0.1557E+02
      8.368  0.1195E+01  0.1203E+01  0.1575E+02  0.1575E+02
      8.501  0.7688E+00  0.7776E+00  0.1589E+02  0.1589E+02
      8.633  0.3573E+00  0.3571E+00  0.1596E+02  0.1596E+02
      8.765  0.1470E+00  0.1462E+00  0.1599E+02  0.1599E+02
      8.897  0.9554E-02  0.9519E-02  0.1600E+02  0.1600E+02
      9.030  0.5677E-02  0.5651E-02  0.1600E+02  0.1600E+02
      9.162  0.2803E-02  0.2786E-02  0.1600E+02  0.1600E+02
      9.294  0.9330E-03  0.9237E-03  0.1600E+02  0.1600E+02
      9.427  0.6634E-04  0.6401E-04  0.1600E+02  0.1600E+02
      9.559  0.0000E+00  0.0000E+00  0.1600E+02  0.1600E+02
      9.691  0.0000E+00  0.0000E+00  0.1600E+02  0.1600E+02
      9.824  0.0000E+00  0.0000E+00  0.1600E+02  0.1600E+02
      9.956  0.0000E+00  0.0000E+00  0.1600E+02  0.1600E+02
     10.088  0.0000E+00  0.0000E+00  0.1600E+02  0.1600E+02
     10.220  0.0000E+00  0.0000E+00  0.1600E+02  0.1600E+02
     10.353  0.0000E+00  0.0000E+00  0.1600E+02  0.1600E+02
     10.485  0.0000E+00  0.0000E+00  0.1600E+02  0.1600E+02
     10.617  0.0000E+00  0.0000E+00  0.1600E+02  0.1600E+02
     10.750  0.0000E+00  0.0000E+00  0.1600E+02  0.1600E+02
     10.882  0.0000E+00  0.0000E+00  0.1600E+02  0.1600E+02
     11.014  0.0000E+00  0.0000E+00  0.1600E+02  0.1600E+02
     11.147  0.0000E+00  0.0000E+00  0.1600E+02  0.1600E+02
     11.279  0.0000E+00  0.0000E+00  0.1600E+02  0.1600E+02
     11.27880508    -28.40973452  301      4.39724663      1.00000000
    -28.410  0.0000E+00  0.0000E+00  0.0000E+00  0.0000E+00  0.0000E+00  0.0000E+00  0.0000E+00  0.0000E+00  0.0000E+00  0.0000E+00  0.0000E+00  0.0000E+00  0.0000E+00  0.0000E+00  0.0000E+00  0.0000E+00  0.0000E+00  0.0000E+00
    -28.277  0.0000E+00  0.0000E+00  0.0000E+00  0.0000E+00  0.0000E+00  0.0000E+00  0.0000E+00  0.0000E+00  0.0000E+00  0.0000E+00  0.0000E+00  0.0000E+00  0.0000E+00  0.0000E+00  0.0000E+00  0.0000E+00  0.0000E+00  0.0000E+00
    -28.145  0.0000E+00  0.0000E+00  0.0000E+00  0.0000E+00  0.0000E+00  0.0000E+00  0.0000E+00  0.0000E+00  0.0000E+00  0.0000E+00  0.0000E+00  0.0000E+00  0.0000E+00  0.0000E+00  0.0000E+00  0.0000E+00  0.0000E+00  0.0000E+00
    -28.013  0.0000E+00  0.0000E+00  0.0000E+00  0.0000E+00  0.0000E+00  0.0000E+00  0.0000E+00  0.0000E+00  0.0000E+00  0.0000E+00  0.0000E+00  0.0000E+00  0.0000E+00  0.0000E+00  0.0000E+00  0.0000E+00  0.0000E+00  0.0000E+00
    -27.881  0.0000E+00  0.0000E+00  0.0000E+00  0.0000E+00  0.0000E+00  0.0000E+00  0.0000E+00  0.0000E+00  0.0000E+00  0.0000E+00  0.0000E+00  0.0000E+00  0.0000E+00  0.0000E+00  0.0000E+00  0.0000E+00  0.0000E+00  0.0000E+00
    -27.748  0.0000E+00  0.0000E+00  0.0000E+00  0.0000E+00  0.0000E+00  0.0000E+00  0.0000E+00  0.0000E+00  0.0000E+00  0.0000E+00  0.0000E+00  0.0000E+00  0.0000E+00  0.0000E+00  0.0000E+00  0.0000E+00  0.0000E+00  0.0000E+00
    -27.616  0.0000E+00  0.0000E+00  0.0000E+00  0.0000E+00  0.0000E+00  0.0000E+00  0.0000E+00  0.0000E+00  0.0000E+00  0.0000E+00  0.0000E+00  0.0000E+00  0.0000E+00  0.0000E+00  0.0000E+00  0.0000E+00  0.0000E+00  0.0000E+00
    -27.484  0.0000E+00  0.0000E+00  0.0000E+00  0.0000E+00  0.0000E+00  0.0000E+00  0.0000E+00  0.0000E+00  0.0000E+00  0.0000E+00  0.0000E+00  0.0000E+00  0.0000E+00  0.0000E+00  0.0000E+00  0.0000E+00  0.0000E+00  0.0000E+00
    -27.351  0.0000E+00  0.0000E+00  0.0000E+00  0.0000E+00  0.0000E+00  0.0000E+00  0.0000E+00  0.0000E+00  0.0000E+00  0.0000E+00  0.0000E+00  0.0000E+00  0.0000E+00  0.0000E+00  0.0000E+00  0.0000E+00  0.0000E+00  0.0000E+00
    -27.219  0.0000E+00  0.0000E+00  0.0000E+00  0.0000E+00  0.0000E+00  0.0000E+00  0.0000E+00  0.0000E+00  0.0000E+00  0.0000E+00  0.0000E+00  0.0000E+00  0.0000E+00  0.0000E+00  0.0000E+00  0.0000E+00  0.0000E+00  0.0000E+00
    -27.087  0.0000E+00  0.0000E+00  0.0000E+00  0.0000E+00  0.0000E+00  0.0000E+00  0.0000E+00  0.0000E+00  0.0000E+00  0.0000E+00  0.0000E+00  0.0000E+00  0.0000E+00  0.0000E+00  0.0000E+00  0.0000E+00  0.0000E+00  0.0000E+00
    -26.954  0.0000E+00  0.0000E+00  0.0000E+00  0.0000E+00  0.0000E+00  0.0000E+00  0.0000E+00  0.0000E+00  0.0000E+00  0.0000E+00  0.0000E+00  0.0000E+00  0.0000E+00  0.0000E+00  0.0000E+00  0.0000E+00  0.0000E+00  0.0000E+00
    -26.822  0.0000E+00  0.0000E+00  0.0000E+00  0.0000E+00  0.0000E+00  0.0000E+00  0.0000E+00  0.0000E+00  0.0000E+00  0.0000E+00  0.0000E+00  0.0000E+00  0.0000E+00  0.0000E+00  0.0000E+00  0.0000E+00  0.0000E+00  0.0000E+00
    -26.690  0.0000E+00  0.0000E+00  0.0000E+00  0.0000E+00  0.0000E+00  0.0000E+00  0.0000E+00  0.0000E+00  0.0000E+00  0.0000E+00  0.0000E+00  0.0000E+00  0.0000E+00  0.0000E+00  0.0000E+00  0.0000E+00  0.0000E+00  0.0000E+00
    -26.558  0.1532E-03  0.1561E-03  0.3255E+00  0.3297E+00  0.3255E+00  0.3297E+00  0.3255E+00  0.3297E+00  0.6934E-04  0.7124E-04  0.6934E-04  0.7124E-04  0.3466E-04  0.3574E-04  0.6934E-04  0.7124E-04  0.3466E-04  0.3574E-04
    -26.425  0.1594E-02  0.1602E-02  0.1360E+01  0.1364E+01  0.1360E+01  0.1364E+01  0.1360E+01  0.1364E+01  0.4973E-03  0.5033E-03  0.4973E-03  0.5033E-03  0.2761E-03  0.2804E-03  0.4973E-03  0.5033E-03  0.2761E-03  0.2804E-03
    -26.293  0.1453E-02  0.1450E-02  0.7880E+00  0.7869E+00  0.7880E+00  0.7869E+00  0.7880E+00  0.7869E+00  0.3912E-03  0.3941E-03  0.3912E-03  0.3941E-03  0.1371E-03  0.1378E-03  0.3912E-03  0.3941E-03  0.1371E-03  0.1378E-03
    -26.161  0.8449E-03  0.8448E-03  0.6400E+00  0.6406E+00  0.6400E+00  0.6406E+00  0.6400E+00  0.6406E+00  0.5156E-03  0.5192E-03  0.5156E-03  0.5192E-03  0.6510E-04  0.6567E-04  0.5156E-03  0.5192E-03  0.6510E-04  0.6567E-04
    -26.028  0.4810E-03  0.4708E-03  0.1073E+01  0.1071E+01  0.1073E+01  0.1071E+01  0.1073E+01  0.1071E+01  0.1082E-02  0.1085E-02  0.1082E-02  0.1085E-02  0.9291E-04  0.9250E-04  0.1082E-02  0.1085E-02  0.9291E-04  0.9250E-04
    -25.896  0.1300E-02  0.1305E-02  0.1554E+01  0.1566E+01  0.1554E+01  0.1566E+01  0.1554E+01  0.1566E+01  0.1320E-02  0.1329E-02  0.1320E-02  0.1329E-02  0.7005E-04  0.7023E-04  0.1320E-02  0.1329E-02  0.7005E-04  0.7023E-04
    -25.764  0.5676E-03  0.5695E-03  0.1071E+01  0.1078E+01  0.1071E+01  0.1078E+01  0.1071E+01  0.1078E+01  0.7782E-03  0.7839E-03  0.7782E-03  0.7839E-03  0.2754E-04  0.2745E-04  0.7782E-03  0.7839E-03  0.2754E-04  0.2745E-04
    -25.632  0.6299E-03  0.6281E-03  0.2047E+01  0.2047E+01  0.2047E+01  0.2047E+01  0.2047E+01  0.2047E+01  0.7354E-03  0.7329E-03  0.7354E-03  0.7329E-03  0.2532E-04  0.2458E-04  0.7354E-03  0.7329E-03  0.2532E-04  0.2458E-04
    -25.499  0.5554E-04  0.5554E-04  0.4539E+00  0.4539E+00  0.4539E+00  0.4539E+00  0.4539E+00  0.4539E+00  0.8298E-04  0.8262E-04  0.8298E-04  0.8262E-04  0.1968E-05  0.1870E-05  0.8298E-04  0.8262E-04  0.1968E-05  0.1870E-05
    -25.367  0.0000E+00  0.0000E+00  0.0000E+00  0.0000E+00  0.0000E+00  0.0000E+00  0.0000E+00  0.0000E+00  0.0000E+00  0.0000E+00  0.0000E+00  0.0000E+00  0.0000E+00  0.0000E+00  0.0000E+00  0.0000E+00  0.0000E+00  0.0000E+00
    -25.235  0.0000E+00  0.0000E+00  0.0000E+00  0.0000E+00  0.0000E+00  0.0000E+00  0.0000E+00  0.0000E+00  0.0000E+00  0.0000E+00  0.0000E+00  0.0000E+00  0.0000E+00  0.0000E+00  0.0000E+00  0.0000E+00  0.0000E+00  0.0000E+00
    -25.102  0.0000E+00  0.0000E+00  0.0000E+00  0.0000E+00  0.0000E+00  0.0000E+00  0.0000E+00  0.0000E+00  0.0000E+00  0.0000E+00  0.0000E+00  0.0000E+00  0.0000E+00  0.0000E+00  0.0000E+00  0.0000E+00  0.0000E+00  0.0000E+00
    -24.970  0.0000E+00  0.0000E+00  0.0000E+00  0.0000E+00  0.0000E+00  0.0000E+00  0.0000E+00  0.0000E+00  0.0000E+00  0.0000E+00  0.0000E+00  0.0000E+00  0.0000E+00  0.0000E+00  0.0000E+00  0.0000E+00  0.0000E+00  0.0000E+00
    -24.838  0.0000E+00  0.0000E+00  0.0000E+00  0.0000E+00  0.0000E+00  0.0000E+00  0.0000E+00  0.0000E+00  0.0000E+00  0.0000E+00  0.0000E+00  0.0000E+00  0.0000E+00  0.0000E+00  0.0000E+00  0.0000E+00  0.0000E+00  0.0000E+00
    -24.705  0.0000E+00  0.0000E+00  0.0000E+00  0.0000E+00  0.0000E+00  0.0000E+00  0.0000E+00  0.0000E+00  0.0000E+00  0.0000E+00  0.0000E+00  0.0000E+00  0.0000E+00  0.0000E+00  0.0000E+00  0.0000E+00  0.0000E+00  0.0000E+00
    -24.573  0.0000E+00  0.0000E+00  0.0000E+00  0.0000E+00  0.0000E+00  0.0000E+00  0.0000E+00  0.0000E+00  0.0000E+00  0.0000E+00  0.0000E+00  0.0000E+00  0.0000E+00  0.0000E+00  0.0000E+00  0.0000E+00  0.0000E+00  0.0000E+00
    -24.441  0.0000E+00  0.0000E+00  0.0000E+00  0.0000E+00  0.0000E+00  0.0000E+00  0.0000E+00  0.0000E+00  0.0000E+00  0.0000E+00  0.0000E+00  0.0000E+00  0.0000E+00  0.0000E+00  0.0000E+00  0.0000E+00  0.0000E+00  0.0000E+00
    -24.309  0.0000E+00  0.0000E+00  0.0000E+00  0.0000E+00  0.0000E+00  0.0000E+00  0.0000E+00  0.0000E+00  0.0000E+00  0.0000E+00  0.0000E+00  0.0000E+00  0.0000E+00  0.0000E+00  0.0000E+00  0.0000E+00  0.0000E+00  0.0000E+00
    -24.176  0.0000E+00  0.0000E+00  0.0000E+00  0.0000E+00  0.0000E+00  0.0000E+00  0.0000E+00  0.0000E+00  0.0000E+00  0.0000E+00  0.0000E+00  0.0000E+00  0.0000E+00  0.0000E+00  0.0000E+00  0.0000E+00  0.0000E+00  0.0000E+00
    -24.044  0.0000E+00  0.0000E+00  0.0000E+00  0.0000E+00  0.0000E+00  0.0000E+00  0.0000E+00  0.0000E+00  0.0000E+00  0.0000E+00  0.0000E+00  0.0000E+00  0.0000E+00  0.0000E+00  0.0000E+00  0.0000E+00  0.0000E+00  0.0000E+00
    -23.912  0.0000E+00  0.0000E+00  0.0000E+00  0.0000E+00  0.0000E+00  0.0000E+00  0.0000E+00  0.0000E+00  0.0000E+00  0.0000E+00  0.0000E+00  0.0000E+00  0.0000E+00  0.0000E+00  0.0000E+00  0.0000E+00  0.0000E+00  0.0000E+00
    -23.779  0.0000E+00  0.0000E+00  0.0000E+00  0.0000E+00  0.0000E+00  0.0000E+00  0.0000E+00  0.0000E+00  0.0000E+00  0.0000E+00  0.0000E+00  0.0000E+00  0.0000E+00  0.0000E+00  0.0000E+00  0.0000E+00  0.0000E+00  0.0000E+00
    -23.647  0.0000E+00  0.0000E+00  0.0000E+00  0.0000E+00  0.0000E+00  0.0000E+00  0.0000E+00  0.0000E+00  0.0000E+00  0.0000E+00  0.0000E+00  0.0000E+00  0.0000E+00  0.0000E+00  0.0000E+00  0.0000E+00  0.0000E+00  0.0000E+00
    -23.515  0.0000E+00  0.0000E+00  0.0000E+00  0.0000E+00  0.0000E+00  0.0000E+00  0.0000E+00  0.0000E+00  0.0000E+00  0.0000E+00  0.0000E+00  0.0000E+00  0.0000E+00  0.0000E+00  0.0000E+00  0.0000E+00  0.0000E+00  0.0000E+00
    -23.383  0.0000E+00  0.0000E+00  0.0000E+00  0.0000E+00  0.0000E+00  0.0000E+00  0.0000E+00  0.0000E+00  0.0000E+00  0.0000E+00  0.0000E+00  0.0000E+00  0.0000E+00  0.0000E+00  0.0000E+00  0.0000E+00  0.0000E+00  0.0000E+00
    -23.250  0.0000E+00  0.0000E+00  0.0000E+00  0.0000E+00  0.0000E+00  0.0000E+00  0.0000E+00  0.0000E+00  0.0000E+00  0.0000E+00  0.0000E+00  0.0000E+00  0.0000E+00  0.0000E+00  0.0000E+00  0.0000E+00  0.0000E+00  0.0000E+00
    -23.118  0.0000E+00  0.0000E+00  0.0000E+00  0.0000E+00  0.0000E+00  0.0000E+00  0.0000E+00  0.0000E+00  0.0000E+00  0.0000E+00  0.0000E+00  0.0000E+00  0.0000E+00  0.0000E+00  0.0000E+00  0.0000E+00  0.0000E+00  0.0000E+00
    -22.986  0.0000E+00  0.0000E+00  0.0000E+00  0.0000E+00  0.0000E+00  0.0000E+00  0.0000E+00  0.0000E+00  0.0000E+00  0.0000E+00  0.0000E+00  0.0000E+00  0.0000E+00  0.0000E+00  0.0000E+00  0.0000E+00  0.0000E+00  0.0000E+00
    -22.853  0.0000E+00  0.0000E+00  0.0000E+00  0.0000E+00  0.0000E+00  0.0000E+00  0.0000E+00  0.0000E+00  0.0000E+00  0.0000E+00  0.0000E+00  0.0000E+00  0.0000E+00  0.0000E+00  0.0000E+00  0.0000E+00  0.0000E+00  0.0000E+00
    -22.721  0.0000E+00  0.0000E+00  0.0000E+00  0.0000E+00  0.0000E+00  0.0000E+00  0.0000E+00  0.0000E+00  0.0000E+00  0.0000E+00  0.0000E+00  0.0000E+00  0.0000E+00  0.0000E+00  0.0000E+00  0.0000E+00  0.0000E+00  0.0000E+00
    -22.589  0.0000E+00  0.0000E+00  0.0000E+00  0.0000E+00  0.0000E+00  0.0000E+00  0.0000E+00  0.0000E+00  0.0000E+00  0.0000E+00  0.0000E+00  0.0000E+00  0.0000E+00  0.0000E+00  0.0000E+00  0.0000E+00  0.0000E+00  0.0000E+00
    -22.456  0.0000E+00  0.0000E+00  0.0000E+00  0.0000E+00  0.0000E+00  0.0000E+00  0.0000E+00  0.0000E+00  0.0000E+00  0.0000E+00  0.0000E+00  0.0000E+00  0.0000E+00  0.0000E+00  0.0000E+00  0.0000E+00  0.0000E+00  0.0000E+00
    -22.324  0.0000E+00  0.0000E+00  0.0000E+00  0.0000E+00  0.0000E+00  0.0000E+00  0.0000E+00  0.0000E+00  0.0000E+00  0.0000E+00  0.0000E+00  0.0000E+00  0.0000E+00  0.0000E+00  0.0000E+00  0.0000E+00  0.0000E+00  0.0000E+00
    -22.192  0.0000E+00  0.0000E+00  0.0000E+00  0.0000E+00  0.0000E+00  0.0000E+00  0.0000E+00  0.0000E+00  0.0000E+00  0.0000E+00  0.0000E+00  0.0000E+00  0.0000E+00  0.0000E+00  0.0000E+00  0.0000E+00  0.0000E+00  0.0000E+00
    -22.060  0.0000E+00  0.0000E+00  0.0000E+00  0.0000E+00  0.0000E+00  0.0000E+00  0.0000E+00  0.0000E+00  0.0000E+00  0.0000E+00  0.0000E+00  0.0000E+00  0.0000E+00  0.0000E+00  0.0000E+00  0.0000E+00  0.0000E+00  0.0000E+00
    -21.927  0.0000E+00  0.0000E+00  0.0000E+00  0.0000E+00  0.0000E+00  0.0000E+00  0.0000E+00  0.0000E+00  0.0000E+00  0.0000E+00  0.0000E+00  0.0000E+00  0.0000E+00  0.0000E+00  0.0000E+00  0.0000E+00  0.0000E+00  0.0000E+00
    -21.795  0.0000E+00  0.0000E+00  0.0000E+00  0.0000E+00  0.0000E+00  0.0000E+00  0.0000E+00  0.0000E+00  0.0000E+00  0.0000E+00  0.0000E+00  0.0000E+00  0.0000E+00  0.0000E+00  0.0000E+00  0.0000E+00  0.0000E+00  0.0000E+00