 vasp.6.4.1 05Apr23 (build Jul 24 2024 14:19:02) complex                         
 executed on             LinuxGNU date 2024.10.22  14:18:29
 running    1 mpi-ranks, with   24 threads/rank, on    1 nodes
 distrk:  each k-point on    1 cores,    1 groups
 distr:  one band on NCORE=   1 cores,    1 groups


--------------------------------------------------------------------------------------------------------


 INCAR:
   ISTART = 0
   ALGO = Fast
   EDIFF = 0.0001
   ENCUT = 520
   IBRION = -1
   ISIF = 2
   ISMEAR = -5
   ISPIN = 2
   LASPH = True
   LMAXMIX = 6
   LORBIT = 11
   LREAL = Auto
   LWAVE = False
   MAGMOM = 2*0.6
   NELM = 100
   NSW = 0
   PREC = Accurate
   SIGMA = 0.05

 POTCAR:    PAW_PBE Nb_pv 08Apr2002               
 POTCAR:    PAW_PBE Nb_pv 08Apr2002               
   SHA256 =  bac2b60850b34f8515cf56f9feae68b678e347865051052a0e1f5d2c6a691c0a Nb_pv/POTCAR          
   COPYR  = (c) Copyright 08Apr2002 Georg Kresse                                                    
   COPYR  = This file is part of the software VASP. Any use, copying, and all other rights are regul
   COPYR  = If you do not have a valid VASP license, you may not use, copy or distribute this file. 
   VRHFIN =Nb: 4p5s4d                                                                               
   LEXCH  = PE                                                                                      
   EATOM  =  1043.3917 eV,   76.6871 Ry                                                             
                                                                                                    
   TITEL  = PAW_PBE Nb_pv 08Apr2002                                                                 
   LULTRA =        F    use ultrasoft PP ?                                                          
   IUNSCR =        1    unscreen: 0-lin 1-nonlin 2-no                                               
   RPACOR =    2.200    partial core radius                                                         
   POMASS =   92.000; ZVAL   =   11.000    mass and valenz                                          
   RCORE  =    2.750    outmost cutoff radius                                                       
   RWIGS  =    2.840; RWIGS  =    1.503    wigner-seitz radius (au A)                               
   ENMAX  =  208.608; ENMIN  =  156.456 eV                                                          
   RCLOC  =    2.201    cutoff for local pot                                                        
   LCOR   =        T    correct aug charges                                                         
   LPAW   =        T    paw PP                                                                      
   EAUG   =  355.067                                                                                
   DEXC   =    0.000                                                                                
   RMAX   =    2.804    core radius for proj-oper                                                   
   RAUG   =    1.300    factor for augmentation sphere                                              
   RDEP   =    2.776    radius for radial grids                                                     
   RDEPT  =    2.198    core radius for aug-charge                                                  
                                                                                                    
   Atomic configuration                                                                             
   11 entries                                                                                       
     n  l   j            E        occ.                                                              
     1  0  0.50    -18805.2456   2.0000                                                             
     2  0  0.50     -2630.2869   2.0000                                                             
     2  1  1.50     -2348.4045   6.0000                                                             
     3  0  0.50      -438.8756   2.0000                                                             
     3  1  1.50      -346.7587   6.0000                                                             
     3  2  2.50      -196.2559  10.0000                                                             
     4  0  0.50       -58.3859   2.0000                                                             
     4  1  1.50       -34.5141   6.0000                                                             
     4  2  2.50        -3.0408   4.0000                                                             
     5  0  0.50        -3.9816   1.0000                                                             
     4  3  2.50        -1.3606   0.0000                                                             
   Description                                                                                      
     l       E           TYP  RCUT    TYP  RCUT                                                     
     1    -34.5140617     23  2.600                                                                 
     1     -1.3605826     23  2.600                                                                 
     2     -3.0407924     23  2.600                                                                 
     2     -1.4463597     23  2.600                                                                 
     0     -3.9816219     23  2.750                                                                 
     0     20.4087390     23  2.750                                                                 
  local pseudopotential read in
  partial core-charges read in
  partial kinetic energy density read in
  atomic valenz-charges read in
  non local Contribution for L=           1  read in
    real space projection operators read in
  non local Contribution for L=           1  read in
    real space projection operators read in
  non local Contribution for L=           2  read in
    real space projection operators read in
  non local Contribution for L=           2  read in
    real space projection operators read in
  non local Contribution for L=           0  read in
    real space projection operators read in
  non local Contribution for L=           0  read in
    real space projection operators read in
    PAW grid and wavefunctions read in

   number of l-projection  operators is LMAX  =           6
   number of lm-projection operators is LMMAX =          18

 -----------------------------------------------------------------------------
|                                                                             |
|               ----> ADVICE to this user running VASP <----                  |
|                                                                             |
|     You have a (more or less) 'small supercell' and for smaller cells       |
|     it is recommended to use the reciprocal-space projection scheme!        |
|     The real-space optimization is not efficient for small cells and it     |
|     is also less accurate ...                                               |
|     Therefore, set LREAL=.FALSE. in the INCAR file.                         |
|                                                                             |
 -----------------------------------------------------------------------------

 Optimization of the real space projectors (new method)

 maximal supplied QI-value         = 13.61
 optimisation between [QCUT,QGAM] = [ 11.57, 23.27] = [ 37.45,151.59] Ry 
 Optimized for a Real-space Cutoff    1.63 Angstroem

   l    n(q)    QCUT    max X(q) W(low)/X(q) W(high)/X(q)  e(spline) 
   1     11    11.565     4.545    0.12E-04    0.18E-04    0.64E-07
   1     11    11.565     6.014    0.42E-04    0.48E-04    0.13E-06
   2     10    11.565   266.542    0.24E-03    0.87E-04    0.13E-05
   2     10    11.565   232.726    0.24E-03    0.87E-04    0.13E-05
   0     11    11.565    38.050    0.76E-04    0.32E-05    0.94E-06
   0     11    11.565    16.565    0.58E-04    0.25E-05    0.73E-06
  PAW_PBE Nb_pv 08Apr2002               :
 energy of atom  1       EATOM=-1043.3917
 kinetic energy error for atom=    0.0011 (will be added to EATOM!!)


 POSCAR: Nb2
  positions in direct lattice
  velocities in cartesian coordinates
 exchange correlation table for  LEXCH =        8
   RHO(1)=    0.500       N(1)  =     2000
   RHO(2)=  100.500       N(2)  =     4000



--------------------------------------------------------------------------------------------------------


 ion  position               nearest neighbor table
   1  0.000  0.000  0.000-   2 2.93   2 2.93   2 2.93   2 2.93   2 2.93   2 2.93   2 2.93   2 2.93

   2  0.500  0.500  0.500-   1 2.93   1 2.93   1 2.93   1 2.93   1 2.93   1 2.93   1 2.93   1 2.93


  LATTYP: Found a simple cubic cell.
 ALAT       =     3.3869288038
  
  Lattice vectors:
  
 A1 = (   3.3869288038,   0.0000000000,   0.0000000000)
 A2 = (   0.0000000000,   3.3869288038,   0.0000000000)
 A3 = (  -0.0000000000,  -0.0000000000,   3.3869288038)


Analysis of symmetry for initial positions (statically):
=====================================================================
 Subroutine PRICEL returns following result:
 
  LATTYP: Found a body centered cubic cell.
 ALAT       =     3.3869288038
  
  Lattice vectors:
  
 A1 = (   1.6934644019,   1.6934644019,  -1.6934644019)
 A2 = (  -1.6934644019,   1.6934644019,   1.6934644019)
 A3 = (   1.6934644019,  -1.6934644019,   1.6934644019)
 
   2 primitive cells build up your supercell.
 

 Routine SETGRP: Setting up the symmetry group for a 
 simple cubic supercell.


 Subroutine GETGRP returns: Found 48 space group operations
 (whereof 48 operations were pure point group operations)
 out of a pool of 48 trial point group operations.


The static configuration has the point symmetry O_h .


Analysis of symmetry for dynamics (positions and initial velocities):
=====================================================================
 Subroutine PRICEL returns following result:
 
  LATTYP: Found a body centered cubic cell.
 ALAT       =     3.3869288038
  
  Lattice vectors:
  
 A1 = (   1.6934644019,   1.6934644019,  -1.6934644019)
 A2 = (  -1.6934644019,   1.6934644019,   1.6934644019)
 A3 = (   1.6934644019,  -1.6934644019,   1.6934644019)
 
   2 primitive cells build up your supercell.
 

 Routine SETGRP: Setting up the symmetry group for a 
 simple cubic supercell.


 Subroutine GETGRP returns: Found 48 space group operations
 (whereof 48 operations were pure point group operations)
 out of a pool of 48 trial point group operations.


The dynamic configuration has the point symmetry O_h .


Analysis of structural, dynamic, and magnetic symmetry:
=====================================================================
 Subroutine PRICEL returns following result:
 
  LATTYP: Found a body centered cubic cell.
 ALAT       =     3.3869288038
  
  Lattice vectors:
  
 A1 = (   1.6934644019,   1.6934644019,  -1.6934644019)
 A2 = (  -1.6934644019,   1.6934644019,   1.6934644019)
 A3 = (   1.6934644019,  -1.6934644019,   1.6934644019)
 
   2 primitive cells build up your supercell.
 

 Routine SETGRP: Setting up the symmetry group for a 
 simple cubic supercell.


 Subroutine GETGRP returns: Found 48 space group operations
 (whereof 48 operations were pure point group operations)
 out of a pool of 48 trial point group operations.


The overall configuration has the point symmetry O_h .


 Subroutine INISYM returns: Found 48 space group operations
 (whereof 48 operations are pure point group operations),
 and found     2 'primitive' translations


----------------------------------------------------------------------------------------

                                     Primitive cell                                     

  volume of cell :      19.4262

  direct lattice vectors                    reciprocal lattice vectors
     1.693464402  1.693464402 -1.693464402     0.295252737  0.295252737  0.000000000
    -1.693464402  1.693464402  1.693464402    -0.000000000  0.295252737  0.295252737
     1.693464402 -1.693464402  1.693464402     0.295252737 -0.000000000  0.295252737

  length of vectors
     2.933166385  2.933166385  2.933166385     0.417550425  0.417550425  0.417550425

  position of ions in fractional coordinates (direct lattice)
     0.000000000  0.000000000  0.000000000

  ion indices of the primitive-cell ions
   primitive index   ion index
                 1           1

----------------------------------------------------------------------------------------



 KPOINTS: pymatgen with grid density = 869 / numbe

Automatic generation of k-mesh.
 Grid dimensions read from file:
 generate k-points for:    7    7    7

 Generating k-lattice:

  Cartesian coordinates                     Fractional coordinates (reciprocal lattice)
     0.042178962 -0.000000000  0.000000000     0.142857143 -0.000000000  0.000000000
    -0.000000000  0.042178962  0.000000000     0.000000000  0.142857143  0.000000000
    -0.000000000 -0.000000000  0.042178962    -0.000000000 -0.000000000  0.142857143

  Length of vectors
     0.042178962  0.042178962  0.042178962

  Shift w.r.t. Gamma in fractional coordinates (k-lattice)
     0.000000000  0.000000000  0.000000000

 TETIRR: Found    163 inequivalent tetrahedra from     2058
 
 Subroutine IBZKPT returns following result:
 ===========================================
 
 Found     20 irreducible k-points:
 
 Following reciprocal coordinates:
            Coordinates               Weight
  0.000000  0.000000  0.000000      1.000000
  0.142857  0.000000  0.000000      6.000000
  0.285714  0.000000  0.000000      6.000000
  0.428571  0.000000  0.000000      6.000000
  0.142857  0.142857  0.000000     12.000000
  0.285714  0.142857  0.000000     24.000000
  0.428571  0.142857  0.000000     24.000000
  0.285714  0.285714  0.000000     12.000000
  0.428571  0.285714  0.000000     24.000000
  0.428571  0.428571  0.000000     12.000000
  0.142857  0.142857  0.142857      8.000000
  0.285714  0.142857  0.142857     24.000000
  0.428571  0.142857  0.142857     24.000000
  0.285714  0.285714  0.142857     24.000000
  0.428571  0.285714  0.142857     48.000000
  0.428571  0.428571  0.142857     24.000000
  0.285714  0.285714  0.285714      8.000000
  0.428571  0.285714  0.285714     24.000000
  0.428571  0.428571  0.285714     24.000000
  0.428571  0.428571  0.428571      8.000000
 
 Following cartesian coordinates:
            Coordinates               Weight
  0.000000  0.000000  0.000000      1.000000
  0.043006  0.000000  0.000000      6.000000
  0.086012  0.000000  0.000000      6.000000
  0.129019  0.000000  0.000000      6.000000
  0.043006  0.043006  0.000000     12.000000
  0.086012  0.043006  0.000000     24.000000
  0.129019  0.043006  0.000000     24.000000
  0.086012  0.086012  0.000000     12.000000
  0.129019  0.086012  0.000000     24.000000
  0.129019  0.129019  0.000000     12.000000
  0.043006  0.043006  0.043006      8.000000
  0.086012  0.043006  0.043006     24.000000
  0.129019  0.043006  0.043006     24.000000
  0.086012  0.086012  0.043006     24.000000
  0.129019  0.086012  0.043006     48.000000
  0.129019  0.129019  0.043006     24.000000
  0.086012  0.086012  0.086012      8.000000
  0.129019  0.086012  0.086012     24.000000
  0.129019  0.129019  0.086012     24.000000
  0.129019  0.129019  0.129019      8.000000
 


--------------------------------------------------------------------------------------------------------




 Dimension of arrays:
   k-points           NKPTS =     20   k-points in BZ     NKDIM =     20   number of bands    NBANDS=     16
   number of dos      NEDOS =    301   number of ions     NIONS =      2
   non local maximal  LDIM  =      6   non local SUM 2l+1 LMDIM =     18
   total plane-waves  NPLWV =  21952
   max r-space proj   IRMAX =  10247   max aug-charges    IRDMAX=  34982
   dimension x,y,z NGX =    28 NGY =   28 NGZ =   28
   dimension x,y,z NGXF=    56 NGYF=   56 NGZF=   56
   support grid    NGXF=    56 NGYF=   56 NGZF=   56
   ions per type =               2
   NGX,Y,Z   is equivalent  to a cutoff of  13.74, 13.74, 13.74 a.u.
   NGXF,Y,Z  is equivalent  to a cutoff of  27.49, 27.49, 27.49 a.u.

 SYSTEM =  unknown system                          
 POSCAR =  Nb2                                     

 Startparameter for this run:
   NWRITE =      2    write-flag & timer
   PREC   = accura    normal or accurate (medium, high low for compatibility)
   ISTART =      0    job   : 0-new  1-cont  2-samecut
   ICHARG =      2    charge: 1-file 2-atom 10-const
   ISPIN  =      2    spin polarized calculation?
   LNONCOLLINEAR =      F non collinear calculations
   LSORBIT =      F    spin-orbit coupling
   INIWAV =      1    electr: 0-lowe 1-rand  2-diag
   LASPH  =      T    aspherical Exc in radial PAW
 Electronic Relaxation 1
   ENCUT  =  520.0 eV  38.22 Ry    6.18 a.u.   6.30  6.30  6.30*2*pi/ulx,y,z
   ENINI  =  520.0     initial cutoff
   ENAUG  =  355.1 eV  augmentation charge cutoff
   NELM   =    100;   NELMIN=  2; NELMDL= -5     # of ELM steps 
   EDIFF  = 0.1E-03   stopping-criterion for ELM
   LREAL  =      T    real-space projection
   NLSPLINE    = F    spline interpolate recip. space projectors
   LCOMPAT=      F    compatible to vasp.4.4
   GGA_COMPAT  = T    GGA compatible to vasp.4.4-vasp.4.6
   LMAXPAW     = -100 max onsite density
   LMAXMIX     =    6 max onsite mixed and CHGCAR
   VOSKOWN=      0    Vosko Wilk Nusair interpolation
   ROPT   =   -0.00025
 Ionic relaxation
   EDIFFG = 0.1E-02   stopping-criterion for IOM
   NSW    =      0    number of steps for IOM
   NBLOCK =      1;   KBLOCK =      1    inner block; outer block 
   IBRION =     -1    ionic relax: 0-MD 1-quasi-New 2-CG
   NFREE  =      0    steps in history (QN), initial steepest desc. (CG)
   ISIF   =      2    stress and relaxation
   IWAVPR =     10    prediction:  0-non 1-charg 2-wave 3-comb
   ISYM   =      2    0-nonsym 1-usesym 2-fastsym
   LCORR  =      T    Harris-Foulkes like correction to forces

   POTIM  = 0.5000    time-step for ionic-motion
   TEIN   =    0.0    initial temperature
   TEBEG  =    0.0;   TEEND  =   0.0 temperature during run
   SMASS  =  -3.00    Nose mass-parameter (am)
   estimated Nose-frequenzy (Omega)   =  0.10E-29 period in steps = 0.13E+47 mass=  -0.262E-27a.u.
   SCALEE = 1.0000    scale energy and forces
   NPACO  =    256;   APACO  = 10.0  distance and # of slots for P.C.
   PSTRESS=    0.0 pullay stress

  Mass of Ions in am
   POMASS =  92.00
  Ionic Valenz
   ZVAL   =  11.00
  Atomic Wigner-Seitz radii
   RWIGS  =  -1.00
  virtual crystal weights 
   VCA    =   1.00
   NELECT =      22.0000    total number of electrons
   NUPDOWN=      -1.0000    fix difference up-down

 DOS related values:
   EMIN   =  10.00;   EMAX   =-10.00  energy-range for DOS
   EFERMI =   0.00;   METHOD = LEGACY      
   ISMEAR =    -5;   SIGMA  =   0.05  broadening in eV -4-tet -1-fermi 0-gaus

 Electronic relaxation 2 (details)
   IALGO  =     68    algorithm
   LDIAG  =      T    sub-space diagonalisation (order eigenvalues)
   LSUBROT=      F    optimize rotation matrix (better conditioning)
   TURBO    =      0    0=normal 1=particle mesh
   IRESTART =      0    0=no restart 2=restart with 2 vectors
   NREBOOT  =      0    no. of reboots
   NMIN     =      0    reboot dimension
   EREF     =   0.00    reference energy to select bands
   IMIX   =      4    mixing-type and parameters
     AMIX     =   0.40;   BMIX     =  1.00
     AMIX_MAG =   1.60;   BMIX_MAG =  1.00
     AMIN     =   0.10
     WC   =   100.;   INIMIX=   1;  MIXPRE=   1;  MAXMIX= -45

 Intra band minimization:
   WEIMIN = 0.0000     energy-eigenvalue tresh-hold
   EBREAK =  0.16E-05  absolut break condition
   DEPER  =   0.30     relativ break condition  

   TIME   =   0.40     timestep for ELM

  volume/ion in A,a.u.               =      19.43       131.09
  Fermi-wavevector in a.u.,A,eV,Ry     =   1.354388  2.559422 24.958064  1.834366
  Thomas-Fermi vector in A             =   2.481563

 Write flags
   LWAVE        =      F    write WAVECAR
   LDOWNSAMPLE  =      F    k-point downsampling of WAVECAR
   LCHARG       =      T    write CHGCAR
   LVTOT        =      F    write LOCPOT, total local potential
   LVHAR        =      F    write LOCPOT, Hartree potential only
   LELF         =      F    write electronic localiz. function (ELF)
   LORBIT       =     11    0 simple, 1 ext, 2 COOP (PROOUT), +10 PAW based schemes


 Dipole corrections
   LMONO  =      F    monopole corrections only (constant potential shift)
   LDIPOL =      F    correct potential (dipole corrections)
   IDIPOL =      0    1-x, 2-y, 3-z, 4-all directions 
   EPSILON=  1.0000000 bulk dielectric constant

 Exchange correlation treatment:
   GGA     =    --    GGA type
   LEXCH   =     8    internal setting for exchange type
   LIBXC   =     F    Libxc                    
   VOSKOWN =     0    Vosko Wilk Nusair interpolation
   LHFCALC =     F    Hartree Fock is set to
   LHFONE  =     F    Hartree Fock one center treatment
   AEXX    =    0.0000 exact exchange contribution

 Linear response parameters
   LEPSILON=     F    determine dielectric tensor
   LRPA    =     F    only Hartree local field effects (RPA)
   LNABLA  =     F    use nabla operator in PAW spheres
   LVEL    =     F    velocity operator in full k-point grid
   CSHIFT  =0.1000    complex shift for real part using Kramers Kronig
   OMEGAMAX=  -1.0    maximum frequency
   DEG_THRESHOLD= 0.2000000E-02 threshold for treating states as degnerate
   RTIME   =   -0.100 relaxation time in fs
  (WPLASMAI=    0.000 imaginary part of plasma frequency in eV, 0.658/RTIME)
   DFIELD  = 0.0000000 0.0000000 0.0000000 field for delta impulse in time

  Optional k-point grid parameters
   LKPOINTS_OPT  =     F    use optional k-point grid
   KPOINTS_OPT_MODE=     1    mode for optional k-point grid

 Orbital magnetization related:
   ORBITALMAG=     F  switch on orbital magnetization
   LCHIMAG   =     F  perturbation theory with respect to B field
   DQ        =  0.001000  dq finite difference perturbation B field
   LLRAUG    =     F  two centre corrections for induced B field
   LBONE     =     F  B-component reconstruction in AE one-centre
   LVGVCALC  =     T  calculate vGv susceptibility
   LVGVAPPL  =     F  apply vGv susceptibility instead of pGv for G=0

 Random number generation:
   RANDOM_GENERATOR = DEFAULT
   PCG_SEED         = not used


--------------------------------------------------------------------------------------------------------


 Static calculation
 charge density and potential will be updated during run
 spin polarized calculation
 RMM-DIIS sequential band-by-band and
  variant of blocked Davidson during initial phase
 perform sub-space diagonalisation
    before iterative eigenvector-optimisation
 modified Broyden-mixing scheme, WC =      100.0
 initial mixing is a Kerker type mixing with AMIX =  0.4000 and BMIX =      1.0000
 Hartree-type preconditioning will be used
 using additional bands            5
 real space projection scheme for non local part
 use partial core corrections
 calculate Harris-corrections to forces   (improved forces if not selfconsistent)
 use gradient corrections 
 use of overlap-Matrix (Vanderbilt PP)
 Fermi weights with tetrahedron method with Bloechl corrections


--------------------------------------------------------------------------------------------------------


  energy-cutoff  :      520.00
  volume of cell :       38.85
      direct lattice vectors                 reciprocal lattice vectors
     3.386928804  0.000000000  0.000000000     0.295252737 -0.000000000  0.000000000
     0.000000000  3.386928804  0.000000000    -0.000000000  0.295252737  0.000000000
    -0.000000000 -0.000000000  3.386928804    -0.000000000 -0.000000000  0.295252737

  length of vectors
     3.386928804  3.386928804  3.386928804     0.295252737  0.295252737  0.295252737



 k-points in units of 2pi/SCALE and weight: pymatgen with grid density = 869 / numbe
   0.00000000  0.00000000  0.00000000       0.003
   0.04300621  0.00000000  0.00000000       0.017
   0.08601242  0.00000000  0.00000000       0.017
   0.12901863  0.00000000  0.00000000       0.017
   0.04300621  0.04300621  0.00000000       0.035
   0.08601242  0.04300621  0.00000000       0.070
   0.12901863  0.04300621  0.00000000       0.070
   0.08601242  0.08601242  0.00000000       0.035
   0.12901863  0.08601242  0.00000000       0.070
   0.12901863  0.12901863  0.00000000       0.035
   0.04300621  0.04300621  0.04300621       0.023
   0.08601242  0.04300621  0.04300621       0.070
   0.12901863  0.04300621  0.04300621       0.070
   0.08601242  0.08601242  0.04300621       0.070
   0.12901863  0.08601242  0.04300621       0.140
   0.12901863  0.12901863  0.04300621       0.070
   0.08601242  0.08601242  0.08601242       0.023
   0.12901863  0.08601242  0.08601242       0.070
   0.12901863  0.12901863  0.08601242       0.070
   0.12901863  0.12901863  0.12901863       0.023

 k-points in reciprocal lattice and weights: pymatgen with grid density = 869 / numbe
   0.00000000  0.00000000  0.00000000       0.003
   0.14285714  0.00000000  0.00000000       0.017
   0.28571429  0.00000000  0.00000000       0.017
   0.42857143  0.00000000  0.00000000       0.017
   0.14285714  0.14285714  0.00000000       0.035
   0.28571429  0.14285714  0.00000000       0.070
   0.42857143  0.14285714  0.00000000       0.070
   0.28571429  0.28571429  0.00000000       0.035
   0.42857143  0.28571429  0.00000000       0.070
   0.42857143  0.42857143  0.00000000       0.035
   0.14285714  0.14285714  0.14285714       0.023
   0.28571429  0.14285714  0.14285714       0.070
   0.42857143  0.14285714  0.14285714       0.070
   0.28571429  0.28571429  0.14285714       0.070
   0.42857143  0.28571429  0.14285714       0.140
   0.42857143  0.42857143  0.14285714       0.070
   0.28571429  0.28571429  0.28571429       0.023
   0.42857143  0.28571429  0.28571429       0.070
   0.42857143  0.42857143  0.28571429       0.070
   0.42857143  0.42857143  0.42857143       0.023

 position of ions in fractional coordinates (direct lattice) 
   0.00000000  0.00000000  0.00000000
   0.50000000  0.50000000  0.50000000

 position of ions in cartesian coordinates  (Angst):
   0.00000000  0.00000000  0.00000000
   1.69346440  1.69346440  1.69346440



--------------------------------------------------------------------------------------------------------


 k-point   1 :   0.0000 0.0000 0.0000  plane waves:    1021
 k-point   2 :   0.1429 0.0000 0.0000  plane waves:    1037
 k-point   3 :   0.2857 0.0000 0.0000  plane waves:    1041
 k-point   4 :   0.4286 0.0000 0.0000  plane waves:    1056
 k-point   5 :   0.1429 0.1429 0.0000  plane waves:    1049
 k-point   6 :   0.2857 0.1429 0.0000  plane waves:    1044
 k-point   7 :   0.4286 0.1429 0.0000  plane waves:    1049
 k-point   8 :   0.2857 0.2857 0.0000  plane waves:    1051
 k-point   9 :   0.4286 0.2857 0.0000  plane waves:    1054
 k-point  10 :   0.4286 0.4286 0.0000  plane waves:    1047
 k-point  11 :   0.1429 0.1429 0.1429  plane waves:    1048
 k-point  12 :   0.2857 0.1429 0.1429  plane waves:    1054
 k-point  13 :   0.4286 0.1429 0.1429  plane waves:    1050
 k-point  14 :   0.2857 0.2857 0.1429  plane waves:    1049
 k-point  15 :   0.4286 0.2857 0.1429  plane waves:    1039
 k-point  16 :   0.4286 0.4286 0.1429  plane waves:    1043
 k-point  17 :   0.2857 0.2857 0.2857  plane waves:    1039
 k-point  18 :   0.4286 0.2857 0.2857  plane waves:    1037
 k-point  19 :   0.4286 0.4286 0.2857  plane waves:    1037
 k-point  20 :   0.4286 0.4286 0.4286  plane waves:    1052

 maximum and minimum number of plane-waves per node :      1056     1021

 maximum number of plane-waves:      1056
 maximum index in each direction: 
   IXMAX=    6   IYMAX=    6   IZMAX=    6
   IXMIN=   -6   IYMIN=   -6   IZMIN=   -6


 serial   3D FFT for wavefunctions
 parallel 3D FFT for charge:
    minimum data exchange during FFTs selected (reduces bandwidth)


 total amount of memory used by VASP MPI-rank0    68117. kBytes
=======================================================================

   base      :      30000. kBytes
   nonlr-proj:       5905. kBytes
   fftplans  :       6192. kBytes
   grid      :      14776. kBytes
   one-center:         62. kBytes
   wavefun   :      11182. kBytes

     INWAV:  cpu time      0.0063: real time      0.0000
 Broyden mixing: mesh for mixing (old mesh)
   NGX = 13   NGY = 13   NGZ = 13
  (NGX  = 56   NGY  = 56   NGZ  = 56)
  gives a total of   2197 points

 initial charge density was supplied:
 charge density of overlapping atoms calculated
 number of electron      22.0000000 magnetization       1.2000000
 keeping initial charge density in first step


--------------------------------------------------------------------------------------------------------


 Maximum index for non-local projection operator         1106
 Maximum index for augmentation-charges        33641 (set IRDMAX)


--------------------------------------------------------------------------------------------------------


 First call to EWALD:  gamma=   0.523
 Maximum number of real-space cells 3x 3x 3
 Maximum number of reciprocal cells 3x 3x 3

    FEWALD:  cpu time      0.0045: real time      0.0045


--------------------------------------- Ionic step        1  -------------------------------------------




--------------------------------------- Iteration      1(   1)  ---------------------------------------


    POTLOK:  cpu time      1.3714: real time      0.1173
    SETDIJ:  cpu time      1.0953: real time      0.2549
     EDDAV:  cpu time    104.1060: real time      5.9432
 BZINTS: Fermi energy:   22.725732;   22.000000 electrons
         Band energy:-0.354989E+02;  BLOECHL correction:   -0.596696
       DOS:  cpu time      0.0152: real time      0.0094
    --------------------------------------------
      LOOP:  cpu time    106.6878: real time      6.3249

 eigenvalue-minimisations  :  1400
 total energy-change (2. order) : 0.2028004E+03  (-0.1153371E+04)
 number of electron      22.0000000 magnetization       1.2000000
 augmentation part       22.0000000 magnetization       1.2000000

 Free energy of the ion-electron system (eV)
  ---------------------------------------------------
  alpha Z        PSCENC =       233.04003972
  Ewald energy   TEWEN  =     -1872.17005281
  -Hartree energ DENC   =      -293.41094311
  -exchange      EXHF   =         0.00000000
  -V(xc)+E(xc)   XCENC  =        52.15056043
  PAW double counting   =      1671.32378679    -1639.41528309
  entropy T*S    EENTRO =         0.00000000
  eigenvalues    EBANDS =       -35.49890167
  atomic energy  EATOM  =      2086.78124273
  Solvation  Ediel_sol  =         0.00000000
  ---------------------------------------------------
  free energy    TOTEN  =       202.80044899 eV

  energy without entropy =      202.80044899  energy(sigma->0) =      202.80044899


--------------------------------------------------------------------------------------------------------




--------------------------------------- Iteration      1(   2)  ---------------------------------------


     EDDAV:  cpu time    102.7194: real time      5.8267
 BZINTS: Fermi energy:    6.810803;   22.000000 electrons
         Band energy:-0.248623E+03;  BLOECHL correction:   -0.340704
       DOS:  cpu time      0.1226: real time      0.0110
    --------------------------------------------
      LOOP:  cpu time    102.7421: real time      5.8377

 eigenvalue-minimisations  :  1352
 total energy-change (2. order) :-0.2131245E+03  (-0.2109644E+03)
 number of electron      22.0000000 magnetization       1.2000000
 augmentation part       22.0000000 magnetization       1.2000000

 Free energy of the ion-electron system (eV)
  ---------------------------------------------------
  alpha Z        PSCENC =       233.04003972
  Ewald energy   TEWEN  =     -1872.17005281
  -Hartree energ DENC   =      -293.41094311
  -exchange      EXHF   =         0.00000000
  -V(xc)+E(xc)   XCENC  =        52.15056043
  PAW double counting   =      1671.32378679    -1639.41528309
  entropy T*S    EENTRO =         0.00000000
  eigenvalues    EBANDS =      -248.62343248
  atomic energy  EATOM  =      2086.78124273
  Solvation  Ediel_sol  =         0.00000000
  ---------------------------------------------------
  free energy    TOTEN  =       -10.32408183 eV

  energy without entropy =      -10.32408183  energy(sigma->0) =      -10.32408183


--------------------------------------------------------------------------------------------------------




--------------------------------------- Iteration      1(   3)  ---------------------------------------


     EDDAV:  cpu time    162.6367: real time      9.0527
 BZINTS: Fermi energy:    5.072962;   22.000000 electrons
         Band energy:-0.259291E+03;  BLOECHL correction:   -0.196191
       DOS:  cpu time      0.1192: real time      0.0096
    --------------------------------------------
      LOOP:  cpu time    162.7559: real time      9.0624

 eigenvalue-minimisations  :  2088
 total energy-change (2. order) :-0.1066767E+02  (-0.1014445E+02)
 number of electron      22.0000000 magnetization       1.2000000
 augmentation part       22.0000000 magnetization       1.2000000

 Free energy of the ion-electron system (eV)
  ---------------------------------------------------
  alpha Z        PSCENC =       233.04003972
  Ewald energy   TEWEN  =     -1872.17005281
  -Hartree energ DENC   =      -293.41094311
  -exchange      EXHF   =         0.00000000
  -V(xc)+E(xc)   XCENC  =        52.15056043
  PAW double counting   =      1671.32378679    -1639.41528309
  entropy T*S    EENTRO =         0.00000000
  eigenvalues    EBANDS =      -259.29110598
  atomic energy  EATOM  =      2086.78124273
  Solvation  Ediel_sol  =         0.00000000
  ---------------------------------------------------
  free energy    TOTEN  =       -20.99175532 eV

  energy without entropy =      -20.99175532  energy(sigma->0) =      -20.99175532


--------------------------------------------------------------------------------------------------------




--------------------------------------- Iteration      1(   4)  ---------------------------------------


     EDDAV:  cpu time    117.1409: real time      6.6426
 BZINTS: Fermi energy:    5.044078;   22.000000 electrons
         Band energy:-0.259472E+03;  BLOECHL correction:   -0.190665
       DOS:  cpu time      0.1203: real time      0.0118
    --------------------------------------------
      LOOP:  cpu time    117.2612: real time      6.6545

 eigenvalue-minimisations  :  1584
 total energy-change (2. order) :-0.1807391E+00  (-0.1797751E+00)
 number of electron      22.0000000 magnetization       1.2000000
 augmentation part       22.0000000 magnetization       1.2000000

 Free energy of the ion-electron system (eV)
  ---------------------------------------------------
  alpha Z        PSCENC =       233.04003972
  Ewald energy   TEWEN  =     -1872.17005281
  -Hartree energ DENC   =      -293.41094311
  -exchange      EXHF   =         0.00000000
  -V(xc)+E(xc)   XCENC  =        52.15056043
  PAW double counting   =      1671.32378679    -1639.41528309
  entropy T*S    EENTRO =         0.00000000
  eigenvalues    EBANDS =      -259.47184509
  atomic energy  EATOM  =      2086.78124273
  Solvation  Ediel_sol  =         0.00000000
  ---------------------------------------------------
  free energy    TOTEN  =       -21.17249443 eV

  energy without entropy =      -21.17249443  energy(sigma->0) =      -21.17249443


--------------------------------------------------------------------------------------------------------




--------------------------------------- Iteration      1(   5)  ---------------------------------------


     EDDAV:  cpu time    142.4296: real time      8.0921
 BZINTS: Fermi energy:    5.040570;   22.000000 electrons
         Band energy:-0.259478E+03;  BLOECHL correction:   -0.189437
       DOS:  cpu time      0.1202: real time      0.0089
    CHARGE:  cpu time      8.0561: real time      0.4710
    MIXING:  cpu time      0.0012: real time      0.0012
    --------------------------------------------
      LOOP:  cpu time    150.6072: real time      8.5732

 eigenvalue-minimisations  :  2032
 total energy-change (2. order) :-0.6183095E-02  (-0.5959300E-02)
 number of electron      22.0000003 magnetization       0.3829101
 augmentation part        7.7323862 magnetization      -0.0418667

 Broyden mixing:
  rms(total) = 0.21612E+01    rms(broyden)= 0.21612E+01
  rms(prec ) = 0.26571E+01
  weight for this iteration     100.00

 Free energy of the ion-electron system (eV)
  ---------------------------------------------------
  alpha Z        PSCENC =       233.04003972
  Ewald energy   TEWEN  =     -1872.17005281
  -Hartree energ DENC   =      -293.41094311
  -exchange      EXHF   =         0.00000000
  -V(xc)+E(xc)   XCENC  =        52.15056043
  PAW double counting   =      1671.32378679    -1639.41528309
  entropy T*S    EENTRO =         0.00000000
  eigenvalues    EBANDS =      -259.47802819
  atomic energy  EATOM  =      2086.78124273
  Solvation  Ediel_sol  =         0.00000000
  ---------------------------------------------------
  free energy    TOTEN  =       -21.17867753 eV

  energy without entropy =      -21.17867753  energy(sigma->0) =      -21.17867753


--------------------------------------------------------------------------------------------------------




--------------------------------------- Iteration      1(   6)  ---------------------------------------


    POTLOK:  cpu time      2.0749: real time      0.1495
    SETDIJ:  cpu time      1.1324: real time      0.2433
    EDDIAG:  cpu time     34.1003: real time      1.8581
  RMM-DIIS:  cpu time     70.7300: real time      3.9655
    ORTHCH:  cpu time      0.7080: real time      0.0378
 BZINTS: Fermi energy:    4.656766;   22.000000 electrons
         Band energy:-0.274908E+03;  BLOECHL correction:   -0.194259
       DOS:  cpu time      0.1203: real time      0.0102
    CHARGE:  cpu time      8.3588: real time      0.4648
    MIXING:  cpu time      0.0013: real time      0.0013
    --------------------------------------------
      LOOP:  cpu time    117.2259: real time      6.7304

 eigenvalue-minimisations  :  1403
 total energy-change (2. order) : 0.9066604E+00  (-0.9500116E-01)
 number of electron      22.0000003 magnetization       0.2103793
 augmentation part        7.8709105 magnetization      -0.0365838

 Broyden mixing:
  rms(total) = 0.76455E+00    rms(broyden)= 0.76455E+00
  rms(prec ) = 0.11006E+01
  weight for this iteration     100.00

 eigenvalues of (default mixing * dielectric matrix)
  average eigenvalue GAMMA=   1.4278
  1.4278

 Free energy of the ion-electron system (eV)
  ---------------------------------------------------
  alpha Z        PSCENC =       233.04003972
  Ewald energy   TEWEN  =     -1872.17005281
  -Hartree energ DENC   =      -272.56753198
  -exchange      EXHF   =         0.00000000
  -V(xc)+E(xc)   XCENC  =        51.06673285
  PAW double counting   =      2112.22312737    -2083.73787548
  entropy T*S    EENTRO =         0.00000000
  eigenvalues    EBANDS =      -274.90769956
  atomic energy  EATOM  =      2086.78124273
  Solvation  Ediel_sol  =         0.00000000
  ---------------------------------------------------
  free energy    TOTEN  =       -20.27201715 eV

  energy without entropy =      -20.27201715  energy(sigma->0) =      -20.27201715


--------------------------------------------------------------------------------------------------------




--------------------------------------- Iteration      1(   7)  ---------------------------------------


    POTLOK:  cpu time      1.4369: real time      0.1136
    SETDIJ:  cpu time      1.0754: real time      0.2483
    EDDIAG:  cpu time     25.1903: real time      1.4136
  RMM-DIIS:  cpu time     80.8945: real time      4.5161
    ORTHCH:  cpu time      0.4358: real time      0.0203
 BZINTS: Fermi energy:    4.339658;   22.000000 electrons
         Band energy:-0.287391E+03;  BLOECHL correction:   -0.195749
       DOS:  cpu time      0.0094: real time      0.0094
    CHARGE:  cpu time      8.1484: real time      0.4584
    MIXING:  cpu time      0.0012: real time      0.0012
    --------------------------------------------
      LOOP:  cpu time    117.1919: real time      6.7810

 eigenvalue-minimisations  :  1740
 total energy-change (2. order) : 0.1359970E+00  (-0.2467531E+00)
 number of electron      22.0000003 magnetization       0.0665892
 augmentation part        8.0543140 magnetization       0.0388806

 Broyden mixing:
  rms(total) = 0.21740E+00    rms(broyden)= 0.21740E+00
  rms(prec ) = 0.24086E+00
  weight for this iteration     100.00

 eigenvalues of (default mixing * dielectric matrix)
  average eigenvalue GAMMA=   1.0447
  1.5387  0.5507

 Free energy of the ion-electron system (eV)
  ---------------------------------------------------
  alpha Z        PSCENC =       233.04003972
  Ewald energy   TEWEN  =     -1872.17005281
  -Hartree energ DENC   =      -256.31245000
  -exchange      EXHF   =         0.00000000
  -V(xc)+E(xc)   XCENC  =        50.26124409
  PAW double counting   =      2437.62084192    -2411.96559964
  entropy T*S    EENTRO =         0.00000000
  eigenvalues    EBANDS =      -287.39128616
  atomic energy  EATOM  =      2086.78124273
  Solvation  Ediel_sol  =         0.00000000
  ---------------------------------------------------
  free energy    TOTEN  =       -20.13602016 eV

  energy without entropy =      -20.13602016  energy(sigma->0) =      -20.13602016


--------------------------------------------------------------------------------------------------------




--------------------------------------- Iteration      1(   8)  ---------------------------------------


    POTLOK:  cpu time      1.3384: real time      0.1062
    SETDIJ:  cpu time      1.0748: real time      0.2490
    EDDIAG:  cpu time     27.0827: real time      1.5217
  RMM-DIIS:  cpu time    122.7874: real time      6.5201
    ORTHCH:  cpu time      0.6726: real time      0.0346
 BZINTS: Fermi energy:    4.354366;   22.000000 electrons
         Band energy:-0.286667E+03;  BLOECHL correction:   -0.194348
       DOS:  cpu time      0.0279: real time      0.0088
    CHARGE:  cpu time      8.8668: real time      0.4934
    MIXING:  cpu time      0.0055: real time      0.0055
    --------------------------------------------
      LOOP:  cpu time    161.8562: real time      8.9392

 eigenvalue-minimisations  :  1851
 total energy-change (2. order) :-0.1044497E-01  (-0.1279194E-01)
 number of electron      22.0000003 magnetization       0.0478681
 augmentation part        8.0605463 magnetization       0.0225789

 Broyden mixing:
  rms(total) = 0.10875E+00    rms(broyden)= 0.10875E+00
  rms(prec ) = 0.13944E+00
  weight for this iteration     100.00

 eigenvalues of (default mixing * dielectric matrix)
  average eigenvalue GAMMA=   1.0430
  1.7458  0.6917  0.6917

 Free energy of the ion-electron system (eV)
  ---------------------------------------------------
  alpha Z        PSCENC =       233.04003972
  Ewald energy   TEWEN  =     -1872.17005281
  -Hartree energ DENC   =      -256.87446515
  -exchange      EXHF   =         0.00000000
  -V(xc)+E(xc)   XCENC  =        50.28205051
  PAW double counting   =      2475.63995597    -2450.17805630
  entropy T*S    EENTRO =         0.00000000
  eigenvalues    EBANDS =      -286.66717980
  atomic energy  EATOM  =      2086.78124273
  Solvation  Ediel_sol  =         0.00000000
  ---------------------------------------------------
  free energy    TOTEN  =       -20.14646513 eV

  energy without entropy =      -20.14646513  energy(sigma->0) =      -20.14646513


--------------------------------------------------------------------------------------------------------




--------------------------------------- Iteration      1(   9)  ---------------------------------------


    POTLOK:  cpu time      1.7570: real time      0.1249
    SETDIJ:  cpu time      1.0243: real time      0.2557
    EDDIAG:  cpu time     23.8274: real time      1.3413
  RMM-DIIS:  cpu time     88.0157: real time      4.9150
    ORTHCH:  cpu time      0.4772: real time      0.0256
 BZINTS: Fermi energy:    4.363729;   22.000000 electrons
         Band energy:-0.286216E+03;  BLOECHL correction:   -0.194423
       DOS:  cpu time      0.1238: real time      0.0138
    CHARGE:  cpu time      8.2792: real time      0.4670
    MIXING:  cpu time      0.0015: real time      0.0015
    --------------------------------------------
      LOOP:  cpu time    123.5060: real time      7.1448

 eigenvalue-minimisations  :  1837
 total energy-change (2. order) :-0.4272375E-03  (-0.2971926E-02)
 number of electron      22.0000003 magnetization       0.0294092
 augmentation part        8.0608647 magnetization       0.0142069

 Broyden mixing:
  rms(total) = 0.88553E-01    rms(broyden)= 0.88553E-01
  rms(prec ) = 0.11708E+00
  weight for this iteration     100.00

 eigenvalues of (default mixing * dielectric matrix)
  average eigenvalue GAMMA=   1.0372
  1.9506  0.8097  0.8097  0.5790

 Free energy of the ion-electron system (eV)
  ---------------------------------------------------
  alpha Z        PSCENC =       233.04003972
  Ewald energy   TEWEN  =     -1872.17005281
  -Hartree energ DENC   =      -257.28791079
  -exchange      EXHF   =         0.00000000
  -V(xc)+E(xc)   XCENC  =        50.30133033
  PAW double counting   =      2509.56672751    -2484.16233291
  entropy T*S    EENTRO =         0.00000000
  eigenvalues    EBANDS =      -286.21593615
  atomic energy  EATOM  =      2086.78124273
  Solvation  Ediel_sol  =         0.00000000
  ---------------------------------------------------
  free energy    TOTEN  =       -20.14689236 eV

  energy without entropy =      -20.14689236  energy(sigma->0) =      -20.14689236


--------------------------------------------------------------------------------------------------------




--------------------------------------- Iteration      1(  10)  ---------------------------------------


    POTLOK:  cpu time      2.1620: real time      0.1541
    SETDIJ:  cpu time      1.0967: real time      0.2542
    EDDIAG:  cpu time     25.4775: real time      1.4295
  RMM-DIIS:  cpu time     76.5514: real time      4.2611
    ORTHCH:  cpu time      0.7282: real time      0.0431
 BZINTS: Fermi energy:    4.385005;   22.000000 electrons
         Band energy:-0.285267E+03;  BLOECHL correction:   -0.194650
       DOS:  cpu time      0.1296: real time      0.0112
    CHARGE:  cpu time      8.4260: real time      0.4871
    MIXING:  cpu time      0.0013: real time      0.0013
    --------------------------------------------
      LOOP:  cpu time    114.5729: real time      6.6416

 eigenvalue-minimisations  :  1496
 total energy-change (2. order) : 0.3183065E-02  (-0.6518470E-03)
 number of electron      22.0000003 magnetization      -0.0069818
 augmentation part        8.0525771 magnetization      -0.0090413

 Broyden mixing:
  rms(total) = 0.64682E-01    rms(broyden)= 0.64682E-01
  rms(prec ) = 0.72951E-01
  weight for this iteration     100.00

 eigenvalues of (default mixing * dielectric matrix)
  average eigenvalue GAMMA=   1.3334
  2.5149  1.3771  1.3771  0.6373  0.7607

 Free energy of the ion-electron system (eV)
  ---------------------------------------------------
  alpha Z        PSCENC =       233.04003972
  Ewald energy   TEWEN  =     -1872.17005281
  -Hartree energ DENC   =      -258.24054054
  -exchange      EXHF   =         0.00000000
  -V(xc)+E(xc)   XCENC  =        50.34670072
  PAW double counting   =      2575.12956316    -2549.76401170
  entropy T*S    EENTRO =         0.00000000
  eigenvalues    EBANDS =      -285.26665058
  atomic energy  EATOM  =      2086.78124273
  Solvation  Ediel_sol  =         0.00000000
  ---------------------------------------------------
  free energy    TOTEN  =       -20.14370930 eV

  energy without entropy =      -20.14370930  energy(sigma->0) =      -20.14370930


--------------------------------------------------------------------------------------------------------




--------------------------------------- Iteration      1(  11)  ---------------------------------------


    POTLOK:  cpu time      1.9689: real time      0.1384
    SETDIJ:  cpu time      1.0799: real time      0.2487
    EDDIAG:  cpu time     27.0050: real time      1.5419
  RMM-DIIS:  cpu time     82.8726: real time      4.5923
    ORTHCH:  cpu time      0.8562: real time      0.0528
 BZINTS: Fermi energy:    4.397027;   22.000000 electrons
         Band energy:-0.284714E+03;  BLOECHL correction:   -0.194752
       DOS:  cpu time      0.1190: real time      0.0090
    CHARGE:  cpu time      8.4481: real time      0.4796
    MIXING:  cpu time      0.0014: real time      0.0014
    --------------------------------------------
      LOOP:  cpu time    122.3511: real time      7.0641

 eigenvalue-minimisations  :  1681
 total energy-change (2. order) :-0.2326511E-04  (-0.5772939E-03)
 number of electron      22.0000003 magnetization      -0.0049736
 augmentation part        8.0456745 magnetization      -0.0005906

 Broyden mixing:
  rms(total) = 0.39597E-02    rms(broyden)= 0.39597E-02
  rms(prec ) = 0.46051E-02
  weight for this iteration     100.00

 eigenvalues of (default mixing * dielectric matrix)
  average eigenvalue GAMMA=   1.2630
  2.5778  1.4395  1.4395  0.7976  0.6862  0.6374

 Free energy of the ion-electron system (eV)
  ---------------------------------------------------
  alpha Z        PSCENC =       233.04003972
  Ewald energy   TEWEN  =     -1872.17005281
  -Hartree energ DENC   =      -258.74786431
  -exchange      EXHF   =         0.00000000
  -V(xc)+E(xc)   XCENC  =        50.37063328
  PAW double counting   =      2648.43302265    -2623.13710846
  entropy T*S    EENTRO =         0.00000000
  eigenvalues    EBANDS =      -284.71364537
  atomic energy  EATOM  =      2086.78124273
  Solvation  Ediel_sol  =         0.00000000
  ---------------------------------------------------
  free energy    TOTEN  =       -20.14373256 eV

  energy without entropy =      -20.14373256  energy(sigma->0) =      -20.14373256


--------------------------------------------------------------------------------------------------------




--------------------------------------- Iteration      1(  12)  ---------------------------------------


    POTLOK:  cpu time      1.7024: real time      0.1216
    SETDIJ:  cpu time      1.0589: real time      0.2521
    EDDIAG:  cpu time     24.7470: real time      1.4152
  RMM-DIIS:  cpu time     59.2715: real time      3.3647
    ORTHCH:  cpu time      0.1895: real time      0.0174
 BZINTS: Fermi energy:    4.397247;   22.000000 electrons
         Band energy:-0.284705E+03;  BLOECHL correction:   -0.194753
       DOS:  cpu time      0.1199: real time      0.0099
    --------------------------------------------
      LOOP:  cpu time     87.0892: real time      5.1808

 eigenvalue-minimisations  :  1260
 total energy-change (2. order) :-0.7637134E-04  (-0.6913250E-04)
 number of electron      22.0000003 magnetization      -0.0049736
 augmentation part        8.0456745 magnetization      -0.0005906

 Free energy of the ion-electron system (eV)
  ---------------------------------------------------
  alpha Z        PSCENC =       233.04003972
  Ewald energy   TEWEN  =     -1872.17005281
  -Hartree energ DENC   =      -258.77072387
  -exchange      EXHF   =         0.00000000
  -V(xc)+E(xc)   XCENC  =        50.37174281
  PAW double counting   =      2648.12440016    -2622.81544800
  entropy T*S    EENTRO =         0.00000000
  eigenvalues    EBANDS =      -284.70500969
  atomic energy  EATOM  =      2086.78124273
  Solvation  Ediel_sol  =         0.00000000
  ---------------------------------------------------
  free energy    TOTEN  =       -20.14380894 eV

  energy without entropy =      -20.14380894  energy(sigma->0) =      -20.14380894


--------------------------------------------------------------------------------------------------------




 average (electrostatic) potential at core
  the test charge radii are     1.2125
  (the norm of the test charge is              1.0000)
       1 -35.7849       2 -35.7849



 E-fermi :   4.3972     XC(G=0): -12.0522     alpha+bet :-12.0425

 Fermi energy:         4.3972466304

 spin component 1

 k-point     1 :       0.0000    0.0000    0.0000
  band No.  band energies     occupation 
      1     -26.2936      1.00000
      2     -26.2936      1.00000
      3     -26.2936      1.00000
      4     -25.5572      1.00000
      5     -25.5572      1.00000
      6     -25.5572      1.00000
      7      -1.3850      1.00000
      8       1.0782      1.00000
      9       1.0782      1.00000
     10       4.7602     -0.09051
     11       4.7602     -0.02235
     12       4.7602      0.00000
     13       7.4217      0.00000
     14       7.4217      0.00000
     15       9.4748      0.00000
     16       9.4748      0.00000

 k-point     2 :       0.1429    0.0000    0.0000
  band No.  band energies     occupation 
      1     -26.2946      1.00000
      2     -26.2559      1.00000
      3     -26.2559      1.00000
      4     -25.6343      1.00000
      5     -25.5922      1.00000
      6     -25.5922      1.00000
      7      -1.0016      1.00000
      8       1.2925      1.00000
      9       1.3785      1.00000
     10       4.7314     -0.07118
     11       4.7314     -0.02612
     12       4.9391      0.00000
     13       6.9094      0.00000
     14       7.6072      0.00000
     15       8.4147      0.00000
     16       8.4147      0.00000

 k-point     3 :       0.2857    0.0000    0.0000
  band No.  band energies     occupation 
      1     -26.2773      1.00000
      2     -26.1507      1.00000
      3     -26.1507      1.00000
      4     -25.8251      1.00000
      5     -25.6910      1.00000
      6     -25.6910      1.00000
      7       0.0322      1.00000
      8       1.9245      1.00000
      9       2.0259      1.00000
     10       4.7529      0.24057
     11       4.7529     -0.09973
     12       5.4611      0.00000
     13       5.6801      0.00000
     14       6.8916      0.00000
     15       6.8916      0.00000
     16       8.0640      0.00000

 k-point     4 :       0.4286    0.0000    0.0000
  band No.  band energies     occupation 
      1     -26.1997      1.00000
      2     -26.0396      1.00000
      3     -26.0005      1.00000
      4     -26.0005      1.00000
      5     -25.8363      1.00000
      6     -25.8363      1.00000
      7       1.3458      1.00000
      8       2.2153      1.00000
      9       2.9361      1.00000
     10       4.2446      0.97337
     11       5.0338     -0.27724
     12       5.0338      0.00000
     13       5.7298      0.00000
     14       5.7298      0.00000
     15       6.2769      0.00000
     16       7.2900      0.00000

 k-point     5 :       0.1429    0.1429    0.0000
  band No.  band energies     occupation 
      1     -26.3567      1.00000
      2     -26.2213      1.00000
      3     -26.1626      1.00000
      4     -25.7700      1.00000
      5     -25.6230      1.00000
      6     -25.5586      1.00000
      7      -0.6505      1.00000
      8       1.5076      1.00000
      9       1.6556      1.00000
     10       4.3477      0.72204
     11       4.6128      0.06129
     12       5.4908     -0.00572
     13       6.9795      0.00000
     14       7.2696      0.00000
     15       7.4531      0.00000
     16       7.5261      0.00000

 k-point     6 :       0.2857    0.1429    0.0000
  band No.  band energies     occupation 
      1     -26.3881      1.00000
      2     -26.1252      1.00000
      3     -26.0250      1.00000
      4     -25.9887      1.00000
      5     -25.7108      1.00000
      6     -25.6037      1.00000
      7       0.2704      1.00000
      8       1.9738      1.00000
      9       2.3590      1.00000
     10       4.1202      0.99766
     11       4.4104      0.64969
     12       5.8762     -0.05209
     13       6.2903      0.00000
     14       6.3272      0.00000
     15       6.3713      0.00000
     16       7.8883      0.00000

 k-point     7 :       0.4286    0.1429    0.0000
  band No.  band energies     occupation 
      1     -26.3422      1.00000
      2     -26.2012      1.00000
      3     -25.9887      1.00000
      4     -25.8687      1.00000
      5     -25.8406      1.00000
      6     -25.7178      1.00000
      7       1.3803      1.00000
      8       2.1270      1.00000
      9       3.1241      1.00000
     10       3.9700      1.00360
     11       4.2531      0.89224
     12       4.8348     -0.03428
     13       5.8689      0.00000
     14       5.9363      0.00000
     15       7.2500      0.00000
     16       8.3146      0.00000

 k-point     8 :       0.2857    0.2857    0.0000
  band No.  band energies     occupation 
      1     -26.4960      1.00000
      2     -26.2258      1.00000
      3     -26.0552      1.00000
      4     -25.8582      1.00000
      5     -25.7679      1.00000
      6     -25.5617      1.00000
      7       0.7709      1.00000
      8       1.8903      1.00000
      9       3.2756      1.00000
     10       3.5517      1.00000
     11       4.3780      0.86168
     12       4.6278      0.06066
     13       5.9679      0.00000
     14       7.0629      0.00000
     15       7.4634      0.00000
     16       7.6495      0.00000

 k-point     9 :       0.4286    0.2857    0.0000
  band No.  band energies     occupation 
      1     -26.5157      1.00000
      2     -26.4206      1.00000
      3     -25.9577      1.00000
      4     -25.8550      1.00000
      5     -25.7100      1.00000
      6     -25.6032      1.00000
      7       1.2047      1.00000
      8       1.5860      1.00000
      9       3.4100      1.00000
     10       3.7701      1.00000
     11       4.1953      0.80367
     12       4.6163      0.02849
     13       6.4364      0.00000
     14       6.9489      0.00000
     15       8.1936      0.00000
     16       8.6201      0.00000

 k-point    10 :       0.4286    0.4286    0.0000
  band No.  band energies     occupation 
      1     -26.6051      1.00000
      2     -26.5717      1.00000
      3     -25.9180      1.00000
      4     -25.8813      1.00000
      5     -25.6029      1.00000
      6     -25.5644      1.00000
      7       1.0082      1.00000
      8       1.1263      1.00000
      9       3.0059      1.00000
     10       3.1270      1.00000
     11       5.5716     -0.16002
     12       5.8580     -0.08563
     13       7.0705      0.00000
     14       7.4348      0.00000
     15       7.9672      0.00000
     16       8.8530      0.00000

 k-point    11 :       0.1429    0.1429    0.1429
  band No.  band energies     occupation 
      1     -26.3161      1.00000
      2     -26.3161      1.00000
      3     -26.0510      1.00000
      4     -25.8796      1.00000
      5     -25.5967      1.00000
      6     -25.5967      1.00000
      7      -0.3123      1.00000
      8       1.8231      1.00000
      9       1.8231      1.00000
     10       4.2243      0.93163
     11       4.2243      0.81186
     12       5.8707     -0.05160
     13       6.0711      0.00000
     14       7.2210      0.00000
     15       7.2212      0.00000
     16       8.5701      0.00000

 k-point    12 :       0.2857    0.1429    0.1429
  band No.  band energies     occupation 
      1     -26.3895      1.00000
      2     -26.2028      1.00000
      3     -26.0813      1.00000
      4     -25.9129      1.00000
      5     -25.7045      1.00000
      6     -25.6074      1.00000
      7       0.5513      1.00000
      8       2.2934      1.00000
      9       2.4359      1.00000
     10       3.9422      1.01486
     11       3.9549      1.07158
     12       4.7266      0.09260
     13       6.6447      0.00000
     14       7.0299      0.00000
     15       7.1905      0.00000
     16       7.7851      0.00000

 k-point    13 :       0.4286    0.1429    0.1429
  band No.  band energies     occupation 
      1     -26.3807      1.00000
      2     -26.2703      1.00000
      3     -26.0405      1.00000
      4     -25.8625      1.00000
      5     -25.7822      1.00000
      6     -25.6745      1.00000
      7       1.5386      1.00000
      8       2.3138      1.00000
      9       2.9480      1.00000
     10       3.5478      1.00803
     11       4.1780      0.96964
     12       4.4613      0.24677
     13       6.1611      0.00000
     14       6.3109      0.00000
     15       7.8910      0.00000
     16       8.1812      0.00000

 k-point    14 :       0.2857    0.2857    0.1429
  band No.  band energies     occupation 
      1     -26.4492      1.00000
      2     -26.2608      1.00000
      3     -26.1640      1.00000
      4     -25.7834      1.00000
      5     -25.7604      1.00000
      6     -25.6071      1.00000
      7       1.1372      1.00000
      8       2.2616      1.00000
      9       3.2890      1.00000
     10       3.4368      1.00000
     11       3.8063      1.01773
     12       3.8722      0.91005
     13       6.8629      0.00000
     14       7.1761      0.00000
     15       7.6592      0.00000
     16       8.2675      0.00000

 k-point    15 :       0.4286    0.2857    0.1429
  band No.  band energies     occupation 
      1     -26.4816      1.00000
      2     -26.4154      1.00000
      3     -26.0311      1.00000
      4     -25.8818      1.00000
      5     -25.6866      1.00000
      6     -25.6283      1.00000
      7       1.5515      1.00000
      8       1.9025      1.00000
      9       3.2631      1.00000
     10       3.3531      1.00000
     11       4.2201      0.86030
     12       4.2529      0.66085
     13       6.7941      0.00000
     14       7.0203      0.00000
     15       8.0611      0.00000
     16       8.4831      0.00000

 k-point    16 :       0.4286    0.4286    0.1429
  band No.  band energies     occupation 
      1     -26.5536      1.00000
      2     -26.5308      1.00000
      3     -25.9697      1.00000
      4     -25.9123      1.00000
      5     -25.6330      1.00000
      6     -25.6156      1.00000
      7       1.3863      1.00000
      8       1.4756      1.00000
      9       2.9592      1.00000
     10       3.0493      1.00000
     11       5.2027     -0.09988
     12       5.2564     -0.14833
     13       7.2802      0.00000
     14       7.5043      0.00000
     15       7.9946      0.00000
     16       8.3726      0.00000

 k-point    17 :       0.2857    0.2857    0.2857
  band No.  band energies     occupation 
      1     -26.3442      1.00000
      2     -26.3182      1.00000
      3     -26.3182      1.00000
      4     -25.7350      1.00000
      5     -25.7350      1.00000
      6     -25.7078      1.00000
      7       1.9902      1.00000
      8       2.7805      1.00000
      9       3.2305      1.00000
     10       3.2305      1.00000
     11       3.2807      1.02819
     12       3.2807      1.07811
     13       7.6064      0.00000
     14       7.6064      0.00000
     15       7.8101      0.00000
     16       7.8102      0.00000

 k-point    18 :       0.4286    0.2857    0.2857
  band No.  band energies     occupation 
      1     -26.4152      1.00000
      2     -26.4129      1.00000
      3     -26.1295      1.00000
      4     -25.9212      1.00000
      5     -25.7012      1.00000
      6     -25.6840      1.00000
      7       2.2334      1.00000
      8       2.3061      1.00000
      9       3.1380      1.00000
     10       3.1979      1.00000
     11       3.6699      1.01450
     12       3.9978      0.98459
     13       7.4140      0.00000
     14       7.4574      0.00000
     15       8.0187      0.00000
     16       8.0863      0.00000

 k-point    19 :       0.4286    0.4286    0.2857
  band No.  band energies     occupation 
      1     -26.4242      1.00000
      2     -26.4091      1.00000
      3     -26.0855      1.00000
      4     -25.9697      1.00000
      5     -25.7596      1.00000
      6     -25.7261      1.00000
      7       2.2469      1.00000
      8       2.3457      1.00000
      9       2.9254      1.00000
     10       3.0832      1.00000
     11       4.2121      0.87260
     12       4.3780      0.77111
     13       7.7280      0.00000
     14       7.7906      0.00000
     15       8.0468      0.00000
     16       8.1018      0.00000

 k-point    20 :       0.4286    0.4286    0.4286
  band No.  band energies     occupation 
      1     -26.3018      1.00000
      2     -26.2001      1.00000
      3     -26.2001      1.00000
      4     -25.9681      1.00000
      5     -25.9681      1.00000
      6     -25.8618      1.00000
      7       2.7134      1.00000
      8       3.0990      1.00000
      9       3.0990      1.00000
     10       3.5900      1.00000
     11       3.5938      1.00000
     12       3.5938      1.00000
     13       8.0683      0.00000
     14       8.0683      0.00000
     15       8.0744      0.00000
     16       8.0744      0.00000
 Fermi energy:         4.3972466304

 spin component 2

 k-point     1 :       0.0000    0.0000    0.0000
  band No.  band energies     occupation 
      1     -26.2942      1.00000
      2     -26.2942      1.00000
      3     -26.2942      1.00000
      4     -25.5577      1.00000
      5     -25.5577      1.00000
      6     -25.5577      1.00000
      7      -1.3877      1.00000
      8       1.0765      1.00000
      9       1.0765      1.00000
     10       4.7589     -0.09094
     11       4.7589     -0.02258
     12       4.7589      0.00000
     13       7.4212      0.00000
     14       7.4212      0.00000
     15       9.4739      0.00000
     16       9.4739      0.00000

 k-point     2 :       0.1429    0.0000    0.0000
  band No.  band energies     occupation 
      1     -26.2952      1.00000
      2     -26.2564      1.00000
      3     -26.2564      1.00000
      4     -25.6349      1.00000
      5     -25.5927      1.00000
      6     -25.5927      1.00000
      7      -1.0043      1.00000
      8       1.2909      1.00000
      9       1.3769      1.00000
     10       4.7302     -0.06875
     11       4.7302     -0.02582
     12       4.9379      0.00000
     13       6.9087      0.00000
     14       7.6066      0.00000
     15       8.4135      0.00000
     16       8.4135      0.00000

 k-point     3 :       0.2857    0.0000    0.0000
  band No.  band energies     occupation 
      1     -26.2779      1.00000
      2     -26.1513      1.00000
      3     -26.1513      1.00000
      4     -25.8257      1.00000
      5     -25.6915      1.00000
      6     -25.6915      1.00000
      7       0.0296      1.00000
      8       1.9229      1.00000
      9       2.0242      1.00000
     10       4.7515      0.24479
     11       4.7515     -0.09877
     12       5.4599      0.00000
     13       5.6791      0.00000
     14       6.8902      0.00000
     15       6.8902      0.00000
     16       8.0631      0.00000

 k-point     4 :       0.4286    0.0000    0.0000
  band No.  band energies     occupation 
      1     -26.2003      1.00000
      2     -26.0402      1.00000
      3     -26.0010      1.00000
      4     -26.0010      1.00000
      5     -25.8368      1.00000
      6     -25.8368      1.00000
      7       1.3433      1.00000
      8       2.2131      1.00000
      9       2.9346      1.00000
     10       4.2433      0.97375
     11       5.0323     -0.27524
     12       5.0323      0.00000
     13       5.7283      0.00000
     14       5.7283      0.00000
     15       6.2757      0.00000
     16       7.2909      0.00000

 k-point     5 :       0.1429    0.1429    0.0000
  band No.  band energies     occupation 
      1     -26.3573      1.00000
      2     -26.2219      1.00000
      3     -26.1632      1.00000
      4     -25.7706      1.00000
      5     -25.6235      1.00000
      6     -25.5591      1.00000
      7      -0.6531      1.00000
      8       1.5060      1.00000
      9       1.6540      1.00000
     10       4.3464      0.72495
     11       4.6114      0.06364
     12       5.4896     -0.00574
     13       6.9788      0.00000
     14       7.2683      0.00000
     15       7.4525      0.00000
     16       7.5247      0.00000

 k-point     6 :       0.2857    0.1429    0.0000
  band No.  band energies     occupation 
      1     -26.3887      1.00000
      2     -26.1258      1.00000
      3     -26.0255      1.00000
      4     -25.9893      1.00000
      5     -25.7113      1.00000
      6     -25.6042      1.00000
      7       0.2678      1.00000
      8       1.9721      1.00000
      9       2.3573      1.00000
     10       4.1188      0.99805
     11       4.4089      0.65518
     12       5.8749     -0.05248
     13       6.2891      0.00000
     14       6.3263      0.00000
     15       6.3699      0.00000
     16       7.8878      0.00000

 k-point     7 :       0.4286    0.1429    0.0000
  band No.  band energies     occupation 
      1     -26.3428      1.00000
      2     -26.2017      1.00000
      3     -25.9892      1.00000
      4     -25.8693      1.00000
      5     -25.8412      1.00000
      6     -25.7183      1.00000
      7       1.3779      1.00000
      8       2.1249      1.00000
      9       3.1225      1.00000
     10       3.9685      1.00361
     11       4.2516      0.89370
     12       4.8333     -0.03425
     13       5.8677      0.00000
     14       5.9349      0.00000
     15       7.2489      0.00000
     16       8.3329      0.00000

 k-point     8 :       0.2857    0.2857    0.0000
  band No.  band energies     occupation 
      1     -26.4966      1.00000
      2     -26.2264      1.00000
      3     -26.0557      1.00000
      4     -25.8588      1.00000
      5     -25.7684      1.00000
      6     -25.5622      1.00000
      7       0.7685      1.00000
      8       1.8885      1.00000
      9       3.2739      1.00000
     10       3.5502      1.00000
     11       4.3762      0.86484
     12       4.6263      0.06186
     13       5.9666      0.00000
     14       7.0622      0.00000
     15       7.4623      0.00000
     16       7.6489      0.00000

 k-point     9 :       0.4286    0.2857    0.0000
  band No.  band energies     occupation 
      1     -26.5163      1.00000
      2     -26.4212      1.00000
      3     -25.9582      1.00000
      4     -25.8556      1.00000
      5     -25.7105      1.00000
      6     -25.6037      1.00000
      7       1.2026      1.00000
      8       1.5841      1.00000
      9       3.4085      1.00000
     10       3.7687      1.00000
     11       4.1935      0.80478
     12       4.6143      0.02985
     13       6.4353      0.00000
     14       6.9479      0.00000
     15       8.1930      0.00000
     16       8.6199      0.00000

 k-point    10 :       0.4286    0.4286    0.0000
  band No.  band energies     occupation 
      1     -26.6057      1.00000
      2     -26.5723      1.00000
      3     -25.9185      1.00000
      4     -25.8819      1.00000
      5     -25.6035      1.00000
      6     -25.5649      1.00000
      7       1.0062      1.00000
      8       1.1244      1.00000
      9       3.0044      1.00000
     10       3.1255      1.00000
     11       5.5694     -0.15964
     12       5.8554     -0.08640
     13       7.0697      0.00000
     14       7.4340      0.00000
     15       7.9667      0.00000
     16       8.8521      0.00000

 k-point    11 :       0.1429    0.1429    0.1429
  band No.  band energies     occupation 
      1     -26.3167      1.00000
      2     -26.3167      1.00000
      3     -26.0516      1.00000
      4     -25.8801      1.00000
      5     -25.5972      1.00000
      6     -25.5972      1.00000
      7      -0.3150      1.00000
      8       1.8214      1.00000
      9       1.8214      1.00000
     10       4.2230      0.93305
     11       4.2230      0.81529
     12       5.8692     -0.05170
     13       6.0699      0.00000
     14       7.2204      0.00000
     15       7.2204      0.00000
     16       8.5690      0.00000

 k-point    12 :       0.2857    0.1429    0.1429
  band No.  band energies     occupation 
      1     -26.3901      1.00000
      2     -26.2034      1.00000
      3     -26.0819      1.00000
      4     -25.9134      1.00000
      5     -25.7051      1.00000
      6     -25.6079      1.00000
      7       0.5487      1.00000
      8       2.2918      1.00000
      9       2.4341      1.00000
     10       3.9407      1.01487
     11       3.9534      1.07056
     12       4.7250      0.09382
     13       6.6439      0.00000
     14       7.0288      0.00000
     15       7.1892      0.00000
     16       7.7846      0.00000

 k-point    13 :       0.4286    0.1429    0.1429
  band No.  band energies     occupation 
      1     -26.3813      1.00000
      2     -26.2708      1.00000
      3     -26.0410      1.00000
      4     -25.8630      1.00000
      5     -25.7828      1.00000
      6     -25.6750      1.00000
      7       1.5363      1.00000
      8       2.3117      1.00000
      9       2.9464      1.00000
     10       3.5462      1.00798
     11       4.1764      0.96998
     12       4.4597      0.25020
     13       6.1600      0.00000
     14       6.3097      0.00000
     15       7.8881      0.00000
     16       8.1801      0.00000

 k-point    14 :       0.2857    0.2857    0.1429
  band No.  band energies     occupation 
      1     -26.4498      1.00000
      2     -26.2614      1.00000
      3     -26.1646      1.00000
      4     -25.7839      1.00000
      5     -25.7609      1.00000
      6     -25.6077      1.00000
      7       1.1348      1.00000
      8       2.2598      1.00000
      9       3.2873      1.00000
     10       3.4353      1.00000
     11       3.8047      1.01747
     12       3.8704      0.91170
     13       6.8617      0.00000
     14       7.1754      0.00000
     15       7.6586      0.00000
     16       8.2665      0.00000

 k-point    15 :       0.4286    0.2857    0.1429
  band No.  band energies     occupation 
      1     -26.4822      1.00000
      2     -26.4160      1.00000
      3     -26.0316      1.00000
      4     -25.8823      1.00000
      5     -25.6872      1.00000
      6     -25.6289      1.00000
      7       1.5494      1.00000
      8       1.9006      1.00000
      9       3.2615      1.00000
     10       3.3515      1.00000
     11       4.2182      0.86128
     12       4.2509      0.66453
     13       6.7931      0.00000
     14       7.0194      0.00000
     15       8.0606      0.00000
     16       8.4828      0.00000

 k-point    16 :       0.4286    0.4286    0.1429
  band No.  band energies     occupation 
      1     -26.5542      1.00000
      2     -26.5314      1.00000
      3     -25.9703      1.00000
      4     -25.9128      1.00000
      5     -25.6335      1.00000
      6     -25.6162      1.00000
      7       1.3843      1.00000
      8       1.4736      1.00000
      9       2.9576      1.00000
     10       3.0477      1.00000
     11       5.2005     -0.09804
     12       5.2541     -0.14742
     13       7.2794      0.00000
     14       7.5037      0.00000
     15       7.9942      0.00000
     16       8.3720      0.00000

 k-point    17 :       0.2857    0.2857    0.2857
  band No.  band energies     occupation 
      1     -26.3448      1.00000
      2     -26.3188      1.00000
      3     -26.3188      1.00000
      4     -25.7355      1.00000
      5     -25.7355      1.00000
      6     -25.7084      1.00000
      7       1.9877      1.00000
      8       2.7788      1.00000
      9       3.2288      1.00000
     10       3.2288      1.00000
     11       3.2789      1.02813
     12       3.2789      1.07773
     13       7.6058      0.00000
     14       7.6058      0.00000
     15       7.8092      0.00000
     16       7.8092      0.00000

 k-point    18 :       0.4286    0.2857    0.2857
  band No.  band energies     occupation 
      1     -26.4158      1.00000
      2     -26.4135      1.00000
      3     -26.1301      1.00000
      4     -25.9218      1.00000
      5     -25.7017      1.00000
      6     -25.6845      1.00000
      7       2.2314      1.00000
      8       2.3043      1.00000
      9       3.1363      1.00000
     10       3.1962      1.00000
     11       3.6679      1.01471
     12       3.9959      0.98497
     13       7.4132      0.00000
     14       7.4568      0.00000
     15       8.0182      0.00000
     16       8.0856      0.00000

 k-point    19 :       0.4286    0.4286    0.2857
  band No.  band energies     occupation 
      1     -26.4248      1.00000
      2     -26.4097      1.00000
      3     -26.0860      1.00000
      4     -25.9703      1.00000
      5     -25.7601      1.00000
      6     -25.7266      1.00000
      7       2.2450      1.00000
      8       2.3437      1.00000
      9       2.9238      1.00000
     10       3.0815      1.00000
     11       4.2100      0.87375
     12       4.3760      0.77284
     13       7.7274      0.00000
     14       7.7901      0.00000
     15       8.0464      0.00000
     16       8.1013      0.00000

 k-point    20 :       0.4286    0.4286    0.4286
  band No.  band energies     occupation 
      1     -26.3024      1.00000
      2     -26.2007      1.00000
      3     -26.2007      1.00000
      4     -25.9687      1.00000
      5     -25.9687      1.00000
      6     -25.8623      1.00000
      7       2.7116      1.00000
      8       3.0972      1.00000
      9       3.0972      1.00000
     10       3.5879      1.00000
     11       3.5918      1.00000
     12       3.5918      1.00000
     13       8.0679      0.00000
     14       8.0679      0.00000
     15       8.0739      0.00000
     16       8.0739      0.00000


--------------------------------------------------------------------------------------------------------


 soft charge-density along one line, spin component           1
         0         1         2         3         4         5         6         7         8         9
 total charge-density along one line

 soft charge-density along one line, spin component           2
         0         1         2         3         4         5         6         7         8         9
 total charge-density along one line

 pseudopotential strength for first ion, spin component:           1
-28.445   0.000   0.000   6.194  -0.000  -0.000  -0.000  -0.000
  0.000 -28.445  -0.000  -0.000   6.194   0.000   0.000  -0.000
  0.000  -0.000 -28.445  -0.000   0.000   6.194  -0.000   0.000
  6.194  -0.000  -0.000   4.131   0.000   0.000   0.000   0.000
 -0.000   6.194   0.000   0.000   4.131   0.000   0.000   0.000
 -0.000   0.000   6.194   0.000   0.000   4.131   0.000   0.000
 -0.000   0.000  -0.000   0.000   0.000   0.000  -6.495  -0.000
 -0.000  -0.000   0.000   0.000   0.000   0.000  -0.000  -6.495
  0.000  -0.000   0.000  -0.000   0.000  -0.000  -0.000   0.000
  0.000  -0.000  -0.000   0.000   0.000   0.000   0.000   0.000
  0.000  -0.000  -0.000  -0.000   0.000   0.000  -0.000  -0.000
 -0.000   0.000  -0.000   0.000   0.000   0.000  -7.379  -0.000
 -0.000  -0.000   0.000   0.000   0.000   0.000  -0.000  -7.379
  0.000  -0.000   0.000  -0.000   0.000  -0.000  -0.000   0.000
  0.000  -0.000  -0.000   0.000   0.000   0.000   0.000   0.000
  0.000  -0.000  -0.000  -0.000   0.000   0.000  -0.000  -0.000
  0.000   0.000   0.000   0.000  -0.000   0.000  -0.000  -0.000
 -0.000  -0.000  -0.000  -0.000  -0.000  -0.000   0.000   0.000
 pseudopotential strength for first ion, spin component:           2
-28.445   0.000   0.000   6.194  -0.000  -0.000  -0.000  -0.000
  0.000 -28.445  -0.000  -0.000   6.194   0.000  -0.000  -0.000
  0.000  -0.000 -28.445  -0.000   0.000   6.194  -0.000  -0.000
  6.194  -0.000  -0.000   4.131   0.000   0.000   0.000   0.000
 -0.000   6.194   0.000   0.000   4.131  -0.000   0.000   0.000
 -0.000   0.000   6.194   0.000  -0.000   4.131   0.000   0.000
 -0.000  -0.000  -0.000   0.000   0.000   0.000  -6.495  -0.000
 -0.000  -0.000  -0.000   0.000   0.000   0.000  -0.000  -6.495
  0.000  -0.000   0.000  -0.000   0.000  -0.000  -0.000   0.000
 -0.000  -0.000  -0.000   0.000   0.000   0.000   0.000   0.000
  0.000  -0.000  -0.000  -0.000   0.000   0.000  -0.000  -0.000
 -0.000  -0.000  -0.000   0.000   0.000   0.000  -7.379  -0.000
 -0.000  -0.000  -0.000   0.000   0.000   0.000  -0.000  -7.379
  0.000  -0.000   0.000  -0.000   0.000  -0.000  -0.000   0.000
 -0.000  -0.000  -0.000   0.000   0.000   0.000   0.000   0.000
  0.000  -0.000  -0.000  -0.000   0.000   0.000  -0.000  -0.000
  0.000   0.000   0.000   0.000  -0.000   0.000  -0.000  -0.000
 -0.000  -0.000  -0.000  -0.000  -0.000  -0.000   0.000   0.000
 total augmentation occupancy for first ion, spin component:           1
  1.992   0.000   0.000  -0.019  -0.000  -0.000   0.000  -0.000  -0.000  -0.000   0.000   0.000  -0.000   0.000   0.000   0.000
  0.000   1.992   0.000  -0.000  -0.019  -0.000   0.000   0.000   0.000   0.000  -0.000  -0.000   0.000   0.000   0.000   0.000
  0.000   0.000   1.992  -0.000  -0.000  -0.019   0.000   0.000  -0.000  -0.000   0.000  -0.000  -0.000   0.000  -0.000   0.000
 -0.019  -0.000  -0.000   0.191   0.000   0.000  -0.000   0.000  -0.000   0.000  -0.000   0.000   0.000   0.000   0.000   0.000
 -0.000  -0.019  -0.000   0.000   0.191   0.000   0.000  -0.000  -0.000  -0.000  -0.000   0.000   0.000   0.000  -0.000   0.000
 -0.000  -0.000  -0.019   0.000   0.000   0.191   0.000   0.000   0.000   0.000  -0.000  -0.000  -0.000  -0.000  -0.000  -0.000
  0.000  -0.000   0.000   0.000  -0.000   0.000   5.282   0.000  -0.000   0.000   0.000  -2.849  -0.000   0.000  -0.000  -0.000
  0.000   0.000   0.000   0.000  -0.000  -0.000   0.000   5.282   0.000   0.000  -0.000  -0.000  -2.849  -0.000  -0.000   0.000
  0.000  -0.000   0.000  -0.000   0.000   0.000  -0.000   0.000   4.922   0.000   0.000   0.000  -0.000  -2.824  -0.000  -0.000
  0.000   0.000   0.000   0.000  -0.000   0.000   0.000   0.000   0.000   5.282   0.000  -0.000  -0.000  -0.000  -2.849  -0.000
 -0.000  -0.000  -0.000   0.000   0.000  -0.000   0.000  -0.000   0.000   0.000   4.922  -0.000   0.000  -0.000  -0.000  -2.824
  0.000   0.000   0.000  -0.000   0.000   0.000  -2.849  -0.000   0.000  -0.000  -0.000   1.572   0.000  -0.000   0.000  -0.000
  0.000  -0.000  -0.000   0.000   0.000   0.000  -0.000  -2.849  -0.000  -0.000   0.000   0.000   1.572   0.000   0.000  -0.000
 -0.000   0.000   0.000   0.000   0.000  -0.000   0.000  -0.000  -2.824  -0.000  -0.000  -0.000   0.000   1.638   0.000   0.000
  0.000   0.000  -0.000  -0.000   0.000   0.000  -0.000  -0.000  -0.000  -2.849  -0.000   0.000   0.000   0.000   1.572   0.000
  0.000   0.000   0.000   0.000   0.000   0.000  -0.000   0.000  -0.000  -0.000  -2.824  -0.000  -0.000   0.000   0.000   1.638
 -0.000   0.000   0.000   0.000   0.000   0.000  -0.000   0.000   0.000  -0.000  -0.000   0.000  -0.000   0.000   0.000  -0.000
  0.000   0.000   0.000   0.000   0.000   0.000   0.000  -0.000  -0.000   0.000   0.000   0.000   0.000   0.000   0.000  -0.000
 total augmentation occupancy for first ion, spin component:           2
  0.000   0.000   0.000   0.000   0.000   0.000  -0.000   0.000   0.000  -0.000   0.000  -0.000   0.000   0.000  -0.000  -0.000
  0.000   0.000   0.000   0.000   0.000   0.000   0.000  -0.000   0.000   0.000   0.000  -0.000   0.000   0.000  -0.000   0.000
  0.000   0.000   0.000   0.000   0.000   0.000   0.000   0.000  -0.000  -0.000  -0.000  -0.000  -0.000  -0.000  -0.000  -0.000
  0.000   0.000   0.000  -0.000  -0.000  -0.000   0.000   0.000  -0.000   0.000  -0.000   0.000   0.000   0.000   0.000   0.000
  0.000   0.000   0.000  -0.000  -0.000  -0.000   0.000   0.000  -0.000   0.000   0.000   0.000   0.000   0.000   0.000  -0.000
  0.000   0.000   0.000  -0.000  -0.000  -0.000   0.000  -0.000   0.000  -0.000   0.000   0.000  -0.000   0.000  -0.000  -0.000
  0.000  -0.000   0.000   0.000   0.000   0.000  -0.003  -0.000   0.000  -0.000   0.000   0.002   0.000  -0.000   0.000  -0.000
  0.000  -0.000  -0.000   0.000   0.000  -0.000  -0.000  -0.003  -0.000  -0.000   0.000   0.000   0.002  -0.000   0.000  -0.000
 -0.000   0.000   0.000   0.000  -0.000  -0.000   0.000  -0.000  -0.005  -0.000  -0.000  -0.000  -0.000   0.004   0.000   0.000
  0.000   0.000   0.000   0.000   0.000  -0.000  -0.000  -0.000  -0.000  -0.003  -0.000   0.000   0.000  -0.000   0.002   0.000
 -0.000   0.000   0.000  -0.000   0.000   0.000   0.000   0.000  -0.000  -0.000  -0.005  -0.000  -0.000   0.000   0.000   0.004
 -0.000   0.000  -0.000   0.000   0.000   0.000   0.002   0.000  -0.000   0.000  -0.000  -0.001  -0.000   0.000  -0.000   0.000
  0.000  -0.000  -0.000   0.000   0.000  -0.000   0.000   0.002  -0.000   0.000  -0.000  -0.000  -0.001   0.000  -0.000   0.000
  0.000   0.000  -0.000  -0.000  -0.000  -0.000  -0.000  -0.000   0.004   0.000   0.000   0.000   0.000  -0.003   0.000  -0.000
  0.000   0.000   0.000   0.000   0.000  -0.000   0.000   0.000  -0.000   0.002   0.000  -0.000  -0.000   0.000  -0.001  -0.000
  0.000  -0.000   0.000   0.000  -0.000   0.000  -0.000  -0.000   0.000   0.000   0.004   0.000   0.000  -0.000  -0.000  -0.003
  0.000  -0.000   0.000   0.000   0.000  -0.000   0.000   0.000   0.000  -0.000  -0.000   0.000  -0.000  -0.000  -0.000  -0.000
 -0.000  -0.000   0.000  -0.000   0.000  -0.000   0.000   0.000   0.000   0.000   0.000   0.000  -0.000  -0.000  -0.000   0.000


------------------------ aborting loop because EDIFF is reached ----------------------------------------





 total charge

# of ion       s       p       d       tot
------------------------------------------
    1        0.399   6.269   2.985   9.654
    2        0.399   6.269   2.985   9.654
--------------------------------------------------
tot          0.799  12.539   5.970  19.307



 magnetization (x)

# of ion       s       p       d       tot
------------------------------------------
    1       -0.000  -0.000  -0.001  -0.001
    2       -0.000  -0.000  -0.001  -0.001
--------------------------------------------------
tot         -0.000  -0.000  -0.002  -0.002

    CHARGE:  cpu time      5.9601: real time      0.3610
    FORLOC:  cpu time      0.0005: real time      0.0005
    FORNL :  cpu time     38.2476: real time      2.1347
    STRESS:  cpu time    119.3578: real time      6.6059
    FORCOR:  cpu time      1.3434: real time      0.1031
    FORHAR:  cpu time      0.1391: real time      0.0113
    MIXING:  cpu time      0.0015: real time      0.0015
    OFIELD:  cpu time      0.0000: real time      0.0000

  FORCE on cell =-STRESS in cart. coord.  units (eV):
  Direction    XX          YY          ZZ          XY          YZ          ZX
  --------------------------------------------------------------------------------------
  Alpha Z   233.04004   233.04004   233.04004
  Ewald    -624.05664  -624.05664  -624.05664     0.00000     0.00000     0.00000
  Hartree    86.25348    86.25348    86.25348    -0.00000    -0.00000    -0.00000
  E(xc)     -94.48797   -94.48797   -94.48797    -0.00000     0.00000    -0.00000
  Local     200.24064   200.24064   200.24064    -0.00000    -0.00000    -0.00000
  n-local   -88.69723   -84.69191   -79.24683     2.55326    -0.60610     0.68439
  augment    53.88260    53.88260    53.88260    -0.00000    -0.00000     0.00000
  Kinetic   218.74773   224.12644   238.39154     1.34825    -1.98500     0.40431
  Fock        0.00000     0.00000     0.00000     0.00000     0.00000     0.00000
  -------------------------------------------------------------------------------------
  Total      -2.25127    -2.25127    -2.25127    -0.00000    -0.00000    -0.00000
  in kB     -92.83675   -92.83675   -92.83675    -0.00000    -0.00000    -0.00000
  external pressure =      -92.84 kB  Pullay stress =        0.00 kB


 VOLUME and BASIS-vectors are now :
 -----------------------------------------------------------------------------
  energy-cutoff  :      520.00
  volume of cell :       38.85
      direct lattice vectors                 reciprocal lattice vectors
     3.386928804  0.000000000  0.000000000     0.295252737 -0.000000000  0.000000000
     0.000000000  3.386928804  0.000000000    -0.000000000  0.295252737  0.000000000
    -0.000000000 -0.000000000  3.386928804    -0.000000000 -0.000000000  0.295252737

  length of vectors
     3.386928804  3.386928804  3.386928804     0.295252737  0.295252737  0.295252737


 FORCES acting on ions
    electron-ion (+dipol)            ewald-force                    non-local-force                 convergence-correction
 -----------------------------------------------------------------------------------------------
   -.420E-14 -.145E-13 -.221E-13   -.331E-14 0.230E-14 -.390E-14   0.500E-21 -.144E-21 -.523E-23   0.697E-14 -.162E-13 0.317E-13
   0.131E-12 0.155E-11 0.164E-11   0.410E-14 -.109E-14 0.525E-14   0.866E-22 0.548E-22 0.174E-21   -.251E-14 -.650E-13 -.338E-13
 -----------------------------------------------------------------------------------------------
   0.127E-12 0.153E-11 0.162E-11   0.788E-15 0.120E-14 0.135E-14   0.587E-21 -.889E-22 0.169E-21   0.445E-14 -.812E-13 -.205E-14


 POSITION                                       TOTAL-FORCE (eV/Angst)
 -----------------------------------------------------------------------------------
      0.00000      0.00000      0.00000        -0.000000      0.000000      0.000000
      1.69346      1.69346      1.69346         0.000000     -0.000000     -0.000000
 -----------------------------------------------------------------------------------
    total drift:                                0.000000      0.000000      0.000000


--------------------------------------------------------------------------------------------------------



  FREE ENERGIE OF THE ION-ELECTRON SYSTEM (eV)
  ---------------------------------------------------
  free  energy   TOTEN  =       -20.14380894 eV

  energy  without entropy=      -20.14380894  energy(sigma->0) =      -20.14380894



--------------------------------------------------------------------------------------------------------


    POTLOK:  cpu time      3.8699: real time      0.4183


--------------------------------------------------------------------------------------------------------


     LOOP+:  cpu time   1654.5646: real time     95.0063
 -----------------------------------------------------------------------------
|                                                                             |
|           W    W    AA    RRRRR   N    N  II  N    N   GGGG   !!!           |
|           W    W   A  A   R    R  NN   N  II  NN   N  G    G  !!!           |
|           W    W  A    A  R    R  N N  N  II  N N  N  G       !!!           |
|           W WW W  AAAAAA  RRRRR   N  N N  II  N  N N  G  GGG   !            |
|           WW  WW  A    A  R   R   N   NN  II  N   NN  G    G                |
|           W    W  A    A  R    R  N    N  II  N    N   GGGG   !!!           |
|                                                                             |
|     Tetrahedron method does not include variations of the Fermi             |
|     occupations, so forces and stress will be inaccurate. We suggest        |
|     using a different smearing scheme ISMEAR = 1 or 2 for metals in         |
|     relaxations.                                                            |
|                                                                             |
 -----------------------------------------------------------------------------

    4ORBIT:  cpu time      0.0000: real time      0.0000



 total charge

# of ion       s       p       d       tot
------------------------------------------
    1        0.399   6.269   2.985   9.654
    2        0.399   6.269   2.985   9.654
--------------------------------------------------
tot          0.799  12.539   5.970  19.307



 magnetization (x)

# of ion       s       p       d       tot
------------------------------------------
    1       -0.000  -0.000  -0.001  -0.001
    2       -0.000  -0.000  -0.001  -0.001
--------------------------------------------------
tot         -0.000  -0.000  -0.002  -0.002

 BZINTS: Fermi energy:    4.397247;   22.000000 electrons
         Band energy:-0.284705E+03;  BLOECHL correction:   -0.194753

 total amount of memory used by VASP MPI-rank0    68117. kBytes
=======================================================================

   base      :      30000. kBytes
   nonlr-proj:       5905. kBytes
   fftplans  :       6192. kBytes
   grid      :      14776. kBytes
   one-center:         62. kBytes
   wavefun   :      11182. kBytes

  
  
 General timing and accounting informations for this job:
 ========================================================
  
                  Total CPU time used (sec):     1668.854
                            User time (sec):     1600.622
                          System time (sec):       68.232
                         Elapsed time (sec):       96.222
  
                   Maximum memory used (kb):      324164.
                   Average memory used (kb):          N/A
  
                          Minor page faults:      2178938
                          Major page faults:          101
                 Voluntary context switches:       764126
