 vasp.6.4.1 05Apr23 (build Jul 24 2024 14:19:02) complex                         
 executed on             LinuxGNU date 2024.10.23  15:42:59
 running    1 mpi-ranks, with   24 threads/rank, on    1 nodes
 distrk:  each k-point on    1 cores,    1 groups
 distr:  one band on NCORE=   1 cores,    1 groups


--------------------------------------------------------------------------------------------------------


 INCAR:
   ISTART = 0
   ALGO = Fast
   EDIFF = 0.0001
   ENCUT = 520
   IBRION = -1
   ISIF = 2
   ISMEAR = -5
   ISPIN = 2
   LASPH = True
   LMAXMIX = 6
   LORBIT = 11
   LREAL = Auto
   LWAVE = False
   MAGMOM = 2*0.6
   NELM = 100
   NSW = 0
   PREC = Accurate
   SIGMA = 0.05

 POTCAR:    PAW_PBE Nb_pv 08Apr2002               
 POTCAR:    PAW_PBE Nb_pv 08Apr2002               
   SHA256 =  bac2b60850b34f8515cf56f9feae68b678e347865051052a0e1f5d2c6a691c0a Nb_pv/POTCAR          
   COPYR  = (c) Copyright 08Apr2002 Georg Kresse                                                    
   COPYR  = This file is part of the software VASP. Any use, copying, and all other rights are regul
   COPYR  = If you do not have a valid VASP license, you may not use, copy or distribute this file. 
   VRHFIN =Nb: 4p5s4d                                                                               
   LEXCH  = PE                                                                                      
   EATOM  =  1043.3917 eV,   76.6871 Ry                                                             
                                                                                                    
   TITEL  = PAW_PBE Nb_pv 08Apr2002                                                                 
   LULTRA =        F    use ultrasoft PP ?                                                          
   IUNSCR =        1    unscreen: 0-lin 1-nonlin 2-no                                               
   RPACOR =    2.200    partial core radius                                                         
   POMASS =   92.000; ZVAL   =   11.000    mass and valenz                                          
   RCORE  =    2.750    outmost cutoff radius                                                       
   RWIGS  =    2.840; RWIGS  =    1.503    wigner-seitz radius (au A)                               
   ENMAX  =  208.608; ENMIN  =  156.456 eV                                                          
   RCLOC  =    2.201    cutoff for local pot                                                        
   LCOR   =        T    correct aug charges                                                         
   LPAW   =        T    paw PP                                                                      
   EAUG   =  355.067                                                                                
   DEXC   =    0.000                                                                                
   RMAX   =    2.804    core radius for proj-oper                                                   
   RAUG   =    1.300    factor for augmentation sphere                                              
   RDEP   =    2.776    radius for radial grids                                                     
   RDEPT  =    2.198    core radius for aug-charge                                                  
                                                                                                    
   Atomic configuration                                                                             
   11 entries                                                                                       
     n  l   j            E        occ.                                                              
     1  0  0.50    -18805.2456   2.0000                                                             
     2  0  0.50     -2630.2869   2.0000                                                             
     2  1  1.50     -2348.4045   6.0000                                                             
     3  0  0.50      -438.8756   2.0000                                                             
     3  1  1.50      -346.7587   6.0000                                                             
     3  2  2.50      -196.2559  10.0000                                                             
     4  0  0.50       -58.3859   2.0000                                                             
     4  1  1.50       -34.5141   6.0000                                                             
     4  2  2.50        -3.0408   4.0000                                                             
     5  0  0.50        -3.9816   1.0000                                                             
     4  3  2.50        -1.3606   0.0000                                                             
   Description                                                                                      
     l       E           TYP  RCUT    TYP  RCUT                                                     
     1    -34.5140617     23  2.600                                                                 
     1     -1.3605826     23  2.600                                                                 
     2     -3.0407924     23  2.600                                                                 
     2     -1.4463597     23  2.600                                                                 
     0     -3.9816219     23  2.750                                                                 
     0     20.4087390     23  2.750                                                                 
  local pseudopotential read in
  partial core-charges read in
  partial kinetic energy density read in
  atomic valenz-charges read in
  non local Contribution for L=           1  read in
    real space projection operators read in
  non local Contribution for L=           1  read in
    real space projection operators read in
  non local Contribution for L=           2  read in
    real space projection operators read in
  non local Contribution for L=           2  read in
    real space projection operators read in
  non local Contribution for L=           0  read in
    real space projection operators read in
  non local Contribution for L=           0  read in
    real space projection operators read in
    PAW grid and wavefunctions read in

   number of l-projection  operators is LMAX  =           6
   number of lm-projection operators is LMMAX =          18

 -----------------------------------------------------------------------------
|                                                                             |
|               ----> ADVICE to this user running VASP <----                  |
|                                                                             |
|     You have a (more or less) 'small supercell' and for smaller cells       |
|     it is recommended to use the reciprocal-space projection scheme!        |
|     The real-space optimization is not efficient for small cells and it     |
|     is also less accurate ...                                               |
|     Therefore, set LREAL=.FALSE. in the INCAR file.                         |
|                                                                             |
 -----------------------------------------------------------------------------

 Optimization of the real space projectors (new method)

 maximal supplied QI-value         = 13.61
 optimisation between [QCUT,QGAM] = [ 11.57, 23.27] = [ 37.45,151.59] Ry 
 Optimized for a Real-space Cutoff    1.63 Angstroem

   l    n(q)    QCUT    max X(q) W(low)/X(q) W(high)/X(q)  e(spline) 
   1     11    11.565     4.545    0.12E-04    0.18E-04    0.64E-07
   1     11    11.565     6.014    0.42E-04    0.48E-04    0.13E-06
   2     10    11.565   266.542    0.24E-03    0.87E-04    0.13E-05
   2     10    11.565   232.726    0.24E-03    0.87E-04    0.13E-05
   0     11    11.565    38.050    0.76E-04    0.32E-05    0.94E-06
   0     11    11.565    16.565    0.58E-04    0.25E-05    0.73E-06
  PAW_PBE Nb_pv 08Apr2002               :
 energy of atom  1       EATOM=-1043.3917
 kinetic energy error for atom=    0.0011 (will be added to EATOM!!)


 POSCAR: Generated POSCAR
  positions in direct lattice
  velocities in cartesian coordinates
 exchange correlation table for  LEXCH =        8
   RHO(1)=    0.500       N(1)  =     2000
   RHO(2)=  100.500       N(2)  =     4000



--------------------------------------------------------------------------------------------------------


 ion  position               nearest neighbor table
   1  0.000  0.000  0.000-   2 2.88   2 2.88   2 2.88   2 2.88   2 2.88   2 2.88   2 2.88   2 2.88

   2  0.500  0.500  0.500-   1 2.88   1 2.88   1 2.88   1 2.88   1 2.88   1 2.88   1 2.88   1 2.88


  LATTYP: Found a simple orthorhombic cell.
 ALAT       =     3.2886711696
 B/A-ratio  =     1.0101010101
 C/A-ratio  =     1.0202020202
  
  Lattice vectors:
  
 A1 = (   0.0000000000,   0.0000000000,  -3.2886711696)
 A2 = (   0.0000000000,   3.3218900703,   0.0000000000)
 A3 = (   3.3551089710,   0.0000000000,   0.0000000000)


Analysis of symmetry for initial positions (statically):
=====================================================================
 Subroutine PRICEL returns following result:
 
  LATTYP: Found a body centered orthorhombic cell.
 ALAT       =     3.2886711696
 B/A-ratio  =     1.0101010101
 C/A-ratio  =     1.0202020202
  
  Lattice vectors:
  
 A1 = (   1.6775544855,  -1.6609450351,  -1.6443355848)
 A2 = (   1.6775544855,   1.6609450351,   1.6443355848)
 A3 = (  -1.6775544855,  -1.6609450351,   1.6443355848)
 
   2 primitive cells build up your supercell.
 

 Routine SETGRP: Setting up the symmetry group for a 
 simple orthorhombic supercell.


 Subroutine GETGRP returns: Found  8 space group operations
 (whereof  8 operations were pure point group operations)
 out of a pool of  8 trial point group operations.


The static configuration has the point symmetry D_2h.


Analysis of symmetry for dynamics (positions and initial velocities):
=====================================================================
 Subroutine PRICEL returns following result:
 
  LATTYP: Found a body centered orthorhombic cell.
 ALAT       =     3.2886711696
 B/A-ratio  =     1.0101010101
 C/A-ratio  =     1.0202020202
  
  Lattice vectors:
  
 A1 = (   1.6775544855,  -1.6609450351,  -1.6443355848)
 A2 = (   1.6775544855,   1.6609450351,   1.6443355848)
 A3 = (  -1.6775544855,  -1.6609450351,   1.6443355848)
 
   2 primitive cells build up your supercell.
 

 Routine SETGRP: Setting up the symmetry group for a 
 simple orthorhombic supercell.


 Subroutine GETGRP returns: Found  8 space group operations
 (whereof  8 operations were pure point group operations)
 out of a pool of  8 trial point group operations.


The dynamic configuration has the point symmetry D_2h.


Analysis of structural, dynamic, and magnetic symmetry:
=====================================================================
 Subroutine PRICEL returns following result:
 
  LATTYP: Found a body centered orthorhombic cell.
 ALAT       =     3.2886711696
 B/A-ratio  =     1.0101010101
 C/A-ratio  =     1.0202020202
  
  Lattice vectors:
  
 A1 = (   1.6775544855,  -1.6609450351,  -1.6443355848)
 A2 = (   1.6775544855,   1.6609450351,   1.6443355848)
 A3 = (  -1.6775544855,  -1.6609450351,   1.6443355848)
 
   2 primitive cells build up your supercell.
 

 Routine SETGRP: Setting up the symmetry group for a 
 simple orthorhombic supercell.


 Subroutine GETGRP returns: Found  8 space group operations
 (whereof  8 operations were pure point group operations)
 out of a pool of  8 trial point group operations.


The overall configuration has the point symmetry D_2h.


 Subroutine INISYM returns: Found  8 space group operations
 (whereof  8 operations are pure point group operations),
 and found     2 'primitive' translations


----------------------------------------------------------------------------------------

                                     Primitive cell                                     

  volume of cell :      18.3266

  direct lattice vectors                    reciprocal lattice vectors
     1.677554485 -1.660945035 -1.644335585     0.298052912 -0.301033441 -0.000000000
     1.677554485  1.660945035  1.644335585     0.298052912 -0.000000000  0.304074183
    -1.677554485 -1.660945035  1.644335585    -0.000000000 -0.301033441  0.304074183

  length of vectors
     2.876937083  2.876937083  2.876937083     0.423623266  0.425789440  0.427881107

  position of ions in fractional coordinates (direct lattice)
     0.000000000  0.000000000  0.000000000

  ion indices of the primitive-cell ions
   primitive index   ion index
                 1           1

----------------------------------------------------------------------------------------



 KPOINTS: pymatgen with grid density = 869 / numbe

Automatic generation of k-mesh.
 Grid dimensions read from file:
 generate k-points for:    7    7    7

 Generating k-lattice:

  Cartesian coordinates                     Fractional coordinates (reciprocal lattice)
     0.042578987 -0.000000000  0.000000000     0.142857143 -0.000000000  0.000000000
     0.000000000  0.043004777  0.000000000     0.000000000  0.142857143  0.000000000
    -0.000000000 -0.000000000  0.043439169    -0.000000000 -0.000000000  0.142857143

  Length of vectors
     0.042578987  0.043004777  0.043439169

  Shift w.r.t. Gamma in fractional coordinates (k-lattice)
     0.000000000  0.000000000  0.000000000

 TETIRR: Found   1000 inequivalent tetrahedra from     2058
 
 Subroutine IBZKPT returns following result:
 ===========================================
 
 Found     64 irreducible k-points:
 
 Following reciprocal coordinates:
            Coordinates               Weight
  0.000000  0.000000  0.000000      1.000000
  0.142857  0.000000  0.000000      2.000000
  0.285714  0.000000  0.000000      2.000000
  0.428571  0.000000  0.000000      2.000000
  0.000000  0.142857  0.000000      2.000000
  0.142857  0.142857  0.000000      4.000000
  0.285714  0.142857  0.000000      4.000000
  0.428571  0.142857  0.000000      4.000000
  0.000000  0.285714  0.000000      2.000000
  0.142857  0.285714  0.000000      4.000000
  0.285714  0.285714  0.000000      4.000000
  0.428571  0.285714  0.000000      4.000000
  0.000000  0.428571  0.000000      2.000000
  0.142857  0.428571  0.000000      4.000000
  0.285714  0.428571  0.000000      4.000000
  0.428571  0.428571  0.000000      4.000000
  0.000000  0.000000  0.142857      2.000000
  0.142857  0.000000  0.142857      4.000000
  0.285714  0.000000  0.142857      4.000000
  0.428571  0.000000  0.142857      4.000000
  0.000000  0.142857  0.142857      4.000000
  0.142857  0.142857  0.142857      8.000000
  0.285714  0.142857  0.142857      8.000000
  0.428571  0.142857  0.142857      8.000000
  0.000000  0.285714  0.142857      4.000000
  0.142857  0.285714  0.142857      8.000000
  0.285714  0.285714  0.142857      8.000000
  0.428571  0.285714  0.142857      8.000000
  0.000000  0.428571  0.142857      4.000000
  0.142857  0.428571  0.142857      8.000000
  0.285714  0.428571  0.142857      8.000000
  0.428571  0.428571  0.142857      8.000000
  0.000000  0.000000  0.285714      2.000000
  0.142857  0.000000  0.285714      4.000000
  0.285714  0.000000  0.285714      4.000000
  0.428571  0.000000  0.285714      4.000000
  0.000000  0.142857  0.285714      4.000000
  0.142857  0.142857  0.285714      8.000000
  0.285714  0.142857  0.285714      8.000000
  0.428571  0.142857  0.285714      8.000000
  0.000000  0.285714  0.285714      4.000000
  0.142857  0.285714  0.285714      8.000000
  0.285714  0.285714  0.285714      8.000000
  0.428571  0.285714  0.285714      8.000000
  0.000000  0.428571  0.285714      4.000000
  0.142857  0.428571  0.285714      8.000000
  0.285714  0.428571  0.285714      8.000000
  0.428571  0.428571  0.285714      8.000000
  0.000000  0.000000  0.428571      2.000000
  0.142857  0.000000  0.428571      4.000000
  0.285714  0.000000  0.428571      4.000000
  0.428571  0.000000  0.428571      4.000000
  0.000000  0.142857  0.428571      4.000000
  0.142857  0.142857  0.428571      8.000000
  0.285714  0.142857  0.428571      8.000000
  0.428571  0.142857  0.428571      8.000000
  0.000000  0.285714  0.428571      4.000000
  0.142857  0.285714  0.428571      8.000000
  0.285714  0.285714  0.428571      8.000000
  0.428571  0.285714  0.428571      8.000000
  0.000000  0.428571  0.428571      4.000000
  0.142857  0.428571  0.428571      8.000000
  0.285714  0.428571  0.428571      8.000000
  0.428571  0.428571  0.428571      8.000000
 
 Following cartesian coordinates:
            Coordinates               Weight
  0.000000  0.000000  0.000000      1.000000
  0.042579  0.000000  0.000000      2.000000
  0.085158  0.000000  0.000000      2.000000
  0.127737  0.000000  0.000000      2.000000
  0.000000  0.043005  0.000000      2.000000
  0.042579  0.043005  0.000000      4.000000
  0.085158  0.043005  0.000000      4.000000
  0.127737  0.043005  0.000000      4.000000
  0.000000  0.086010  0.000000      2.000000
  0.042579  0.086010  0.000000      4.000000
  0.085158  0.086010  0.000000      4.000000
  0.127737  0.086010  0.000000      4.000000
  0.000000  0.129014  0.000000      2.000000
  0.042579  0.129014  0.000000      4.000000
  0.085158  0.129014  0.000000      4.000000
  0.127737  0.129014  0.000000      4.000000
  0.000000  0.000000  0.043439      2.000000
  0.042579  0.000000  0.043439      4.000000
  0.085158  0.000000  0.043439      4.000000
  0.127737  0.000000  0.043439      4.000000
  0.000000  0.043005  0.043439      4.000000
  0.042579  0.043005  0.043439      8.000000
  0.085158  0.043005  0.043439      8.000000
  0.127737  0.043005  0.043439      8.000000
  0.000000  0.086010  0.043439      4.000000
  0.042579  0.086010  0.043439      8.000000
  0.085158  0.086010  0.043439      8.000000
  0.127737  0.086010  0.043439      8.000000
  0.000000  0.129014  0.043439      4.000000
  0.042579  0.129014  0.043439      8.000000
  0.085158  0.129014  0.043439      8.000000
  0.127737  0.129014  0.043439      8.000000
  0.000000  0.000000  0.086878      2.000000
  0.042579  0.000000  0.086878      4.000000
  0.085158  0.000000  0.086878      4.000000
  0.127737  0.000000  0.086878      4.000000
  0.000000  0.043005  0.086878      4.000000
  0.042579  0.043005  0.086878      8.000000
  0.085158  0.043005  0.086878      8.000000
  0.127737  0.043005  0.086878      8.000000
  0.000000  0.086010  0.086878      4.000000
  0.042579  0.086010  0.086878      8.000000
  0.085158  0.086010  0.086878      8.000000
  0.127737  0.086010  0.086878      8.000000
  0.000000  0.129014  0.086878      4.000000
  0.042579  0.129014  0.086878      8.000000
  0.085158  0.129014  0.086878      8.000000
  0.127737  0.129014  0.086878      8.000000
  0.000000  0.000000  0.130318      2.000000
  0.042579  0.000000  0.130318      4.000000
  0.085158  0.000000  0.130318      4.000000
  0.127737  0.000000  0.130318      4.000000
  0.000000  0.043005  0.130318      4.000000
  0.042579  0.043005  0.130318      8.000000
  0.085158  0.043005  0.130318      8.000000
  0.127737  0.043005  0.130318      8.000000
  0.000000  0.086010  0.130318      4.000000
  0.042579  0.086010  0.130318      8.000000
  0.085158  0.086010  0.130318      8.000000
  0.127737  0.086010  0.130318      8.000000
  0.000000  0.129014  0.130318      4.000000
  0.042579  0.129014  0.130318      8.000000
  0.085158  0.129014  0.130318      8.000000
  0.127737  0.129014  0.130318      8.000000
 


--------------------------------------------------------------------------------------------------------




 Dimension of arrays:
   k-points           NKPTS =     64   k-points in BZ     NKDIM =     64   number of bands    NBANDS=     16
   number of dos      NEDOS =    301   number of ions     NIONS =      2
   non local maximal  LDIM  =      6   non local SUM 2l+1 LMDIM =     18
   total plane-waves  NPLWV =  18816
   max r-space proj   IRMAX =   9315   max aug-charges    IRDMAX=  31802
   dimension x,y,z NGX =    28 NGY =   28 NGZ =   24
   dimension x,y,z NGXF=    56 NGYF=   56 NGZF=   48
   support grid    NGXF=    56 NGYF=   56 NGZF=   48
   ions per type =               2
   NGX,Y,Z   is equivalent  to a cutoff of  13.87, 14.01, 12.13 a.u.
   NGXF,Y,Z  is equivalent  to a cutoff of  27.75, 28.03, 24.26 a.u.

 SYSTEM =  unknown system                          
 POSCAR =  Generated POSCAR                        

 Startparameter for this run:
   NWRITE =      2    write-flag & timer
   PREC   = accura    normal or accurate (medium, high low for compatibility)
   ISTART =      0    job   : 0-new  1-cont  2-samecut
   ICHARG =      2    charge: 1-file 2-atom 10-const
   ISPIN  =      2    spin polarized calculation?
   LNONCOLLINEAR =      F non collinear calculations
   LSORBIT =      F    spin-orbit coupling
   INIWAV =      1    electr: 0-lowe 1-rand  2-diag
   LASPH  =      T    aspherical Exc in radial PAW
 Electronic Relaxation 1
   ENCUT  =  520.0 eV  38.22 Ry    6.18 a.u.   6.24  6.18  6.11*2*pi/ulx,y,z
   ENINI  =  520.0     initial cutoff
   ENAUG  =  355.1 eV  augmentation charge cutoff
   NELM   =    100;   NELMIN=  2; NELMDL= -5     # of ELM steps 
   EDIFF  = 0.1E-03   stopping-criterion for ELM
   LREAL  =      T    real-space projection
   NLSPLINE    = F    spline interpolate recip. space projectors
   LCOMPAT=      F    compatible to vasp.4.4
   GGA_COMPAT  = T    GGA compatible to vasp.4.4-vasp.4.6
   LMAXPAW     = -100 max onsite density
   LMAXMIX     =    6 max onsite mixed and CHGCAR
   VOSKOWN=      0    Vosko Wilk Nusair interpolation
   ROPT   =   -0.00025
 Ionic relaxation
   EDIFFG = 0.1E-02   stopping-criterion for IOM
   NSW    =      0    number of steps for IOM
   NBLOCK =      1;   KBLOCK =      1    inner block; outer block 
   IBRION =     -1    ionic relax: 0-MD 1-quasi-New 2-CG
   NFREE  =      0    steps in history (QN), initial steepest desc. (CG)
   ISIF   =      2    stress and relaxation
   IWAVPR =     10    prediction:  0-non 1-charg 2-wave 3-comb
   ISYM   =      2    0-nonsym 1-usesym 2-fastsym
   LCORR  =      T    Harris-Foulkes like correction to forces

   POTIM  = 0.5000    time-step for ionic-motion
   TEIN   =    0.0    initial temperature
   TEBEG  =    0.0;   TEEND  =   0.0 temperature during run
   SMASS  =  -3.00    Nose mass-parameter (am)
   estimated Nose-frequenzy (Omega)   =  0.10E-29 period in steps = 0.13E+47 mass=  -0.257E-27a.u.
   SCALEE = 1.0000    scale energy and forces
   NPACO  =    256;   APACO  = 10.0  distance and # of slots for P.C.
   PSTRESS=    0.0 pullay stress

  Mass of Ions in am
   POMASS =  92.00
  Ionic Valenz
   ZVAL   =  11.00
  Atomic Wigner-Seitz radii
   RWIGS  =  -1.00
  virtual crystal weights 
   VCA    =   1.00
   NELECT =      22.0000    total number of electrons
   NUPDOWN=      -1.0000    fix difference up-down

 DOS related values:
   EMIN   =  10.00;   EMAX   =-10.00  energy-range for DOS
   EFERMI =   0.00;   METHOD = LEGACY      
   ISMEAR =    -5;   SIGMA  =   0.05  broadening in eV -4-tet -1-fermi 0-gaus

 Electronic relaxation 2 (details)
   IALGO  =     68    algorithm
   LDIAG  =      T    sub-space diagonalisation (order eigenvalues)
   LSUBROT=      F    optimize rotation matrix (better conditioning)
   TURBO    =      0    0=normal 1=particle mesh
   IRESTART =      0    0=no restart 2=restart with 2 vectors
   NREBOOT  =      0    no. of reboots
   NMIN     =      0    reboot dimension
   EREF     =   0.00    reference energy to select bands
   IMIX   =      4    mixing-type and parameters
     AMIX     =   0.40;   BMIX     =  1.00
     AMIX_MAG =   1.60;   BMIX_MAG =  1.00
     AMIN     =   0.10
     WC   =   100.;   INIMIX=   1;  MIXPRE=   1;  MAXMIX= -45

 Intra band minimization:
   WEIMIN = 0.0000     energy-eigenvalue tresh-hold
   EBREAK =  0.16E-05  absolut break condition
   DEPER  =   0.30     relativ break condition  

   TIME   =   0.40     timestep for ELM

  volume/ion in A,a.u.               =      18.33       123.67
  Fermi-wavevector in a.u.,A,eV,Ry     =   1.380951  2.609619 25.946661  1.907026
  Thomas-Fermi vector in A             =   2.505781

 Write flags
   LWAVE        =      F    write WAVECAR
   LDOWNSAMPLE  =      F    k-point downsampling of WAVECAR
   LCHARG       =      T    write CHGCAR
   LVTOT        =      F    write LOCPOT, total local potential
   LVHAR        =      F    write LOCPOT, Hartree potential only
   LELF         =      F    write electronic localiz. function (ELF)
   LORBIT       =     11    0 simple, 1 ext, 2 COOP (PROOUT), +10 PAW based schemes


 Dipole corrections
   LMONO  =      F    monopole corrections only (constant potential shift)
   LDIPOL =      F    correct potential (dipole corrections)
   IDIPOL =      0    1-x, 2-y, 3-z, 4-all directions 
   EPSILON=  1.0000000 bulk dielectric constant

 Exchange correlation treatment:
   GGA     =    --    GGA type
   LEXCH   =     8    internal setting for exchange type
   LIBXC   =     F    Libxc                    
   VOSKOWN =     0    Vosko Wilk Nusair interpolation
   LHFCALC =     F    Hartree Fock is set to
   LHFONE  =     F    Hartree Fock one center treatment
   AEXX    =    0.0000 exact exchange contribution

 Linear response parameters
   LEPSILON=     F    determine dielectric tensor
   LRPA    =     F    only Hartree local field effects (RPA)
   LNABLA  =     F    use nabla operator in PAW spheres
   LVEL    =     F    velocity operator in full k-point grid
   CSHIFT  =0.1000    complex shift for real part using Kramers Kronig
   OMEGAMAX=  -1.0    maximum frequency
   DEG_THRESHOLD= 0.2000000E-02 threshold for treating states as degnerate
   RTIME   =   -0.100 relaxation time in fs
  (WPLASMAI=    0.000 imaginary part of plasma frequency in eV, 0.658/RTIME)
   DFIELD  = 0.0000000 0.0000000 0.0000000 field for delta impulse in time

  Optional k-point grid parameters
   LKPOINTS_OPT  =     F    use optional k-point grid
   KPOINTS_OPT_MODE=     1    mode for optional k-point grid

 Orbital magnetization related:
   ORBITALMAG=     F  switch on orbital magnetization
   LCHIMAG   =     F  perturbation theory with respect to B field
   DQ        =  0.001000  dq finite difference perturbation B field
   LLRAUG    =     F  two centre corrections for induced B field
   LBONE     =     F  B-component reconstruction in AE one-centre
   LVGVCALC  =     T  calculate vGv susceptibility
   LVGVAPPL  =     F  apply vGv susceptibility instead of pGv for G=0

 Random number generation:
   RANDOM_GENERATOR = DEFAULT
   PCG_SEED         = not used


--------------------------------------------------------------------------------------------------------


 Static calculation
 charge density and potential will be updated during run
 spin polarized calculation
 RMM-DIIS sequential band-by-band and
  variant of blocked Davidson during initial phase
 perform sub-space diagonalisation
    before iterative eigenvector-optimisation
 modified Broyden-mixing scheme, WC =      100.0
 initial mixing is a Kerker type mixing with AMIX =  0.4000 and BMIX =      1.0000
 Hartree-type preconditioning will be used
 using additional bands            5
 real space projection scheme for non local part
 use partial core corrections
 calculate Harris-corrections to forces   (improved forces if not selfconsistent)
 use gradient corrections 
 use of overlap-Matrix (Vanderbilt PP)
 Fermi weights with tetrahedron method with Bloechl corrections


--------------------------------------------------------------------------------------------------------


  energy-cutoff  :      520.00
  volume of cell :       36.65
      direct lattice vectors                 reciprocal lattice vectors
     3.355108971  0.000000000  0.000000000     0.298052912 -0.000000000  0.000000000
     0.000000000  3.321890070  0.000000000     0.000000000  0.301033441  0.000000000
     0.000000000  0.000000000  3.288671170    -0.000000000 -0.000000000  0.304074183

  length of vectors
     3.355108971  3.321890070  3.288671170     0.298052912  0.301033441  0.304074183



 k-points in units of 2pi/SCALE and weight: pymatgen with grid density = 869 / numbe
   0.00000000  0.00000000  0.00000000       0.003
   0.04257899  0.00000000  0.00000000       0.006
   0.08515797  0.00000000  0.00000000       0.006
   0.12773696  0.00000000  0.00000000       0.006
   0.00000000  0.04300478  0.00000000       0.006
   0.04257899  0.04300478  0.00000000       0.012
   0.08515797  0.04300478  0.00000000       0.012
   0.12773696  0.04300478  0.00000000       0.012
   0.00000000  0.08600955  0.00000000       0.006
   0.04257899  0.08600955  0.00000000       0.012
   0.08515797  0.08600955  0.00000000       0.012
   0.12773696  0.08600955  0.00000000       0.012
   0.00000000  0.12901433  0.00000000       0.006
   0.04257899  0.12901433  0.00000000       0.012
   0.08515797  0.12901433  0.00000000       0.012
   0.12773696  0.12901433  0.00000000       0.012
   0.00000000  0.00000000  0.04343917       0.006
   0.04257899  0.00000000  0.04343917       0.012
   0.08515797  0.00000000  0.04343917       0.012
   0.12773696  0.00000000  0.04343917       0.012
   0.00000000  0.04300478  0.04343917       0.012
   0.04257899  0.04300478  0.04343917       0.023
   0.08515797  0.04300478  0.04343917       0.023
   0.12773696  0.04300478  0.04343917       0.023
   0.00000000  0.08600955  0.04343917       0.012
   0.04257899  0.08600955  0.04343917       0.023
   0.08515797  0.08600955  0.04343917       0.023
   0.12773696  0.08600955  0.04343917       0.023
   0.00000000  0.12901433  0.04343917       0.012
   0.04257899  0.12901433  0.04343917       0.023
   0.08515797  0.12901433  0.04343917       0.023
   0.12773696  0.12901433  0.04343917       0.023
   0.00000000  0.00000000  0.08687834       0.006
   0.04257899  0.00000000  0.08687834       0.012
   0.08515797  0.00000000  0.08687834       0.012
   0.12773696  0.00000000  0.08687834       0.012
   0.00000000  0.04300478  0.08687834       0.012
   0.04257899  0.04300478  0.08687834       0.023
   0.08515797  0.04300478  0.08687834       0.023
   0.12773696  0.04300478  0.08687834       0.023
   0.00000000  0.08600955  0.08687834       0.012
   0.04257899  0.08600955  0.08687834       0.023
   0.08515797  0.08600955  0.08687834       0.023
   0.12773696  0.08600955  0.08687834       0.023
   0.00000000  0.12901433  0.08687834       0.012
   0.04257899  0.12901433  0.08687834       0.023
   0.08515797  0.12901433  0.08687834       0.023
   0.12773696  0.12901433  0.08687834       0.023
   0.00000000  0.00000000  0.13031751       0.006
   0.04257899  0.00000000  0.13031751       0.012
   0.08515797  0.00000000  0.13031751       0.012
   0.12773696  0.00000000  0.13031751       0.012
   0.00000000  0.04300478  0.13031751       0.012
   0.04257899  0.04300478  0.13031751       0.023
   0.08515797  0.04300478  0.13031751       0.023
   0.12773696  0.04300478  0.13031751       0.023
   0.00000000  0.08600955  0.13031751       0.012
   0.04257899  0.08600955  0.13031751       0.023
   0.08515797  0.08600955  0.13031751       0.023
   0.12773696  0.08600955  0.13031751       0.023
   0.00000000  0.12901433  0.13031751       0.012
   0.04257899  0.12901433  0.13031751       0.023
   0.08515797  0.12901433  0.13031751       0.023
   0.12773696  0.12901433  0.13031751       0.023

 k-points in reciprocal lattice and weights: pymatgen with grid density = 869 / numbe
   0.00000000  0.00000000  0.00000000       0.003
   0.14285714  0.00000000  0.00000000       0.006
   0.28571429  0.00000000  0.00000000       0.006
   0.42857143  0.00000000  0.00000000       0.006
   0.00000000  0.14285714  0.00000000       0.006
   0.14285714  0.14285714  0.00000000       0.012
   0.28571429  0.14285714  0.00000000       0.012
   0.42857143  0.14285714  0.00000000       0.012
   0.00000000  0.28571429  0.00000000       0.006
   0.14285714  0.28571429  0.00000000       0.012
   0.28571429  0.28571429  0.00000000       0.012
   0.42857143  0.28571429  0.00000000       0.012
   0.00000000  0.42857143  0.00000000       0.006
   0.14285714  0.42857143  0.00000000       0.012
   0.28571429  0.42857143  0.00000000       0.012
   0.42857143  0.42857143  0.00000000       0.012
   0.00000000  0.00000000  0.14285714       0.006
   0.14285714  0.00000000  0.14285714       0.012
   0.28571429  0.00000000  0.14285714       0.012
   0.42857143  0.00000000  0.14285714       0.012
   0.00000000  0.14285714  0.14285714       0.012
   0.14285714  0.14285714  0.14285714       0.023
   0.28571429  0.14285714  0.14285714       0.023
   0.42857143  0.14285714  0.14285714       0.023
   0.00000000  0.28571429  0.14285714       0.012
   0.14285714  0.28571429  0.14285714       0.023
   0.28571429  0.28571429  0.14285714       0.023
   0.42857143  0.28571429  0.14285714       0.023
   0.00000000  0.42857143  0.14285714       0.012
   0.14285714  0.42857143  0.14285714       0.023
   0.28571429  0.42857143  0.14285714       0.023
   0.42857143  0.42857143  0.14285714       0.023
   0.00000000  0.00000000  0.28571429       0.006
   0.14285714  0.00000000  0.28571429       0.012
   0.28571429  0.00000000  0.28571429       0.012
   0.42857143  0.00000000  0.28571429       0.012
   0.00000000  0.14285714  0.28571429       0.012
   0.14285714  0.14285714  0.28571429       0.023
   0.28571429  0.14285714  0.28571429       0.023
   0.42857143  0.14285714  0.28571429       0.023
   0.00000000  0.28571429  0.28571429       0.012
   0.14285714  0.28571429  0.28571429       0.023
   0.28571429  0.28571429  0.28571429       0.023
   0.42857143  0.28571429  0.28571429       0.023
   0.00000000  0.42857143  0.28571429       0.012
   0.14285714  0.42857143  0.28571429       0.023
   0.28571429  0.42857143  0.28571429       0.023
   0.42857143  0.42857143  0.28571429       0.023
   0.00000000  0.00000000  0.42857143       0.006
   0.14285714  0.00000000  0.42857143       0.012
   0.28571429  0.00000000  0.42857143       0.012
   0.42857143  0.00000000  0.42857143       0.012
   0.00000000  0.14285714  0.42857143       0.012
   0.14285714  0.14285714  0.42857143       0.023
   0.28571429  0.14285714  0.42857143       0.023
   0.42857143  0.14285714  0.42857143       0.023
   0.00000000  0.28571429  0.42857143       0.012
   0.14285714  0.28571429  0.42857143       0.023
   0.28571429  0.28571429  0.42857143       0.023
   0.42857143  0.28571429  0.42857143       0.023
   0.00000000  0.42857143  0.42857143       0.012
   0.14285714  0.42857143  0.42857143       0.023
   0.28571429  0.42857143  0.42857143       0.023
   0.42857143  0.42857143  0.42857143       0.023

 position of ions in fractional coordinates (direct lattice) 
   0.00000000  0.00000000  0.00000000
   0.50000000  0.50000000  0.50000000

 position of ions in cartesian coordinates  (Angst):
   0.00000000  0.00000000  0.00000000
   1.67755449  1.66094504  1.64433558



--------------------------------------------------------------------------------------------------------


 k-point   1 :   0.0000 0.0000 0.0000  plane waves:     997
 k-point   2 :   0.1429 0.0000 0.0000  plane waves:     985
 k-point   3 :   0.2857 0.0000 0.0000  plane waves:     986
 k-point   4 :   0.4286 0.0000 0.0000  plane waves:     998
 k-point   5 :   0.0000 0.1429 0.0000  plane waves:     981
 k-point   6 :   0.1429 0.1429 0.0000  plane waves:     981
 k-point   7 :   0.2857 0.1429 0.0000  plane waves:     987
 k-point   8 :   0.4286 0.1429 0.0000  plane waves:     988
 k-point   9 :   0.0000 0.2857 0.0000  plane waves:     988
 k-point  10 :   0.1429 0.2857 0.0000  plane waves:     994
 k-point  11 :   0.2857 0.2857 0.0000  plane waves:     983
 k-point  12 :   0.4286 0.2857 0.0000  plane waves:     975
 k-point  13 :   0.0000 0.4286 0.0000  plane waves:     986
 k-point  14 :   0.1429 0.4286 0.0000  plane waves:     982
 k-point  15 :   0.2857 0.4286 0.0000  plane waves:     979
 k-point  16 :   0.4286 0.4286 0.0000  plane waves:     986
 k-point  17 :   0.0000 0.0000 0.1429  plane waves:     984
 k-point  18 :   0.1429 0.0000 0.1429  plane waves:     984
 k-point  19 :   0.2857 0.0000 0.1429  plane waves:     984
 k-point  20 :   0.4286 0.0000 0.1429  plane waves:     987
 k-point  21 :   0.0000 0.1429 0.1429  plane waves:     983
 k-point  22 :   0.1429 0.1429 0.1429  plane waves:     981
 k-point  23 :   0.2857 0.1429 0.1429  plane waves:     986
 k-point  24 :   0.4286 0.1429 0.1429  plane waves:     984
 k-point  25 :   0.0000 0.2857 0.1429  plane waves:     986
 k-point  26 :   0.1429 0.2857 0.1429  plane waves:     988
 k-point  27 :   0.2857 0.2857 0.1429  plane waves:     986
 k-point  28 :   0.4286 0.2857 0.1429  plane waves:     983
 k-point  29 :   0.0000 0.4286 0.1429  plane waves:     988
 k-point  30 :   0.1429 0.4286 0.1429  plane waves:     984
 k-point  31 :   0.2857 0.4286 0.1429  plane waves:     989
 k-point  32 :   0.4286 0.4286 0.1429  plane waves:     990
 k-point  33 :   0.0000 0.0000 0.2857  plane waves:     972
 k-point  34 :   0.1429 0.0000 0.2857  plane waves:     991
 k-point  35 :   0.2857 0.0000 0.2857  plane waves:     990
 k-point  36 :   0.4286 0.0000 0.2857  plane waves:     981
 k-point  37 :   0.0000 0.1429 0.2857  plane waves:     984
 k-point  38 :   0.1429 0.1429 0.2857  plane waves:     986
 k-point  39 :   0.2857 0.1429 0.2857  plane waves:     985
 k-point  40 :   0.4286 0.1429 0.2857  plane waves:     989
 k-point  41 :   0.0000 0.2857 0.2857  plane waves:     986
 k-point  42 :   0.1429 0.2857 0.2857  plane waves:     989
 k-point  43 :   0.2857 0.2857 0.2857  plane waves:     987
 k-point  44 :   0.4286 0.2857 0.2857  plane waves:     986
 k-point  45 :   0.0000 0.4286 0.2857  plane waves:     989
 k-point  46 :   0.1429 0.4286 0.2857  plane waves:     988
 k-point  47 :   0.2857 0.4286 0.2857  plane waves:     985
 k-point  48 :   0.4286 0.4286 0.2857  plane waves:     993
 k-point  49 :   0.0000 0.0000 0.4286  plane waves:     994
 k-point  50 :   0.1429 0.0000 0.4286  plane waves:     988
 k-point  51 :   0.2857 0.0000 0.4286  plane waves:     987
 k-point  52 :   0.4286 0.0000 0.4286  plane waves:     987
 k-point  53 :   0.0000 0.1429 0.4286  plane waves:     983
 k-point  54 :   0.1429 0.1429 0.4286  plane waves:     988
 k-point  55 :   0.2857 0.1429 0.4286  plane waves:     988
 k-point  56 :   0.4286 0.1429 0.4286  plane waves:     986
 k-point  57 :   0.0000 0.2857 0.4286  plane waves:     989
 k-point  58 :   0.1429 0.2857 0.4286  plane waves:     987
 k-point  59 :   0.2857 0.2857 0.4286  plane waves:     990
 k-point  60 :   0.4286 0.2857 0.4286  plane waves:     994
 k-point  61 :   0.0000 0.4286 0.4286  plane waves:    1007
 k-point  62 :   0.1429 0.4286 0.4286  plane waves:     993
 k-point  63 :   0.2857 0.4286 0.4286  plane waves:     987
 k-point  64 :   0.4286 0.4286 0.4286  plane waves:     992

 maximum and minimum number of plane-waves per node :      1007      972

 maximum number of plane-waves:      1007
 maximum index in each direction: 
   IXMAX=    6   IYMAX=    6   IZMAX=    6
   IXMIN=   -6   IYMIN=   -6   IZMIN=   -6


 serial   3D FFT for wavefunctions
 parallel 3D FFT for charge:
    minimum data exchange during FFTs selected (reduces bandwidth)


 total amount of memory used by VASP MPI-rank0    86030. kBytes
=======================================================================

   base      :      30000. kBytes
   nonlr-proj:       3732. kBytes
   fftplans  :       5340. kBytes
   grid      :      12719. kBytes
   one-center:         62. kBytes
   wavefun   :      34177. kBytes

     INWAV:  cpu time      0.0065: real time      0.0001
 Broyden mixing: mesh for mixing (old mesh)
   NGX = 13   NGY = 13   NGZ = 13
  (NGX  = 56   NGY  = 56   NGZ  = 48)
  gives a total of   2197 points

 initial charge density was supplied:
 charge density of overlapping atoms calculated
 number of electron      22.0000000 magnetization       1.2000000
 keeping initial charge density in first step


--------------------------------------------------------------------------------------------------------


 Maximum index for non-local projection operator          577
 Maximum index for augmentation-charges        30683 (set IRDMAX)


--------------------------------------------------------------------------------------------------------


 First call to EWALD:  gamma=   0.534
 Maximum number of real-space cells 3x 3x 3
 Maximum number of reciprocal cells 3x 3x 3

    FEWALD:  cpu time      0.1399: real time      0.0047


--------------------------------------- Ionic step        1  -------------------------------------------




--------------------------------------- Iteration      1(   1)  ---------------------------------------


    POTLOK:  cpu time      1.1536: real time      0.0954
    SETDIJ:  cpu time      1.2719: real time      0.2841
     EDDAV:  cpu time    327.6490: real time     18.7070
 BZINTS: Fermi energy:   23.466606;   22.000000 electrons
         Band energy:-0.312261E+02;  BLOECHL correction:   -0.685645
       DOS:  cpu time      0.3544: real time      0.0567
    --------------------------------------------
      LOOP:  cpu time    330.4290: real time     19.1433

 eigenvalue-minimisations  :  4456
 total energy-change (2. order) : 0.1988009E+03  (-0.1163032E+04)
 number of electron      22.0000000 magnetization       1.2000000
 augmentation part       22.0000000 magnetization       1.2000000

 Free energy of the ion-electron system (eV)
  ---------------------------------------------------
  alpha Z        PSCENC =       247.02244180
  Ewald energy   TEWEN  =     -1908.87812676
  -Hartree energ DENC   =      -279.42445411
  -exchange      EXHF   =         0.00000000
  -V(xc)+E(xc)   XCENC  =        52.61736041
  PAW double counting   =      1671.32378679    -1639.41528309
  entropy T*S    EENTRO =         0.00000000
  eigenvalues    EBANDS =       -31.22608373
  atomic energy  EATOM  =      2086.78124273
  Solvation  Ediel_sol  =         0.00000000
  ---------------------------------------------------
  free energy    TOTEN  =       198.80088403 eV

  energy without entropy =      198.80088403  energy(sigma->0) =      198.80088403


--------------------------------------------------------------------------------------------------------




--------------------------------------- Iteration      1(   2)  ---------------------------------------


     EDDAV:  cpu time    421.5713: real time     22.9317
 BZINTS: Fermi energy:    7.078899;   22.000000 electrons
         Band energy:-0.240881E+03;  BLOECHL correction:   -0.292599
       DOS:  cpu time      0.3032: real time      0.0509
    --------------------------------------------
      LOOP:  cpu time    421.8745: real time     22.9826

 eigenvalue-minimisations  :  4328
 total energy-change (2. order) :-0.2096546E+03  (-0.2074585E+03)
 number of electron      22.0000000 magnetization       1.2000000
 augmentation part       22.0000000 magnetization       1.2000000

 Free energy of the ion-electron system (eV)
  ---------------------------------------------------
  alpha Z        PSCENC =       247.02244180
  Ewald energy   TEWEN  =     -1908.87812676
  -Hartree energ DENC   =      -279.42445411
  -exchange      EXHF   =         0.00000000
  -V(xc)+E(xc)   XCENC  =        52.61736041
  PAW double counting   =      1671.32378679    -1639.41528309
  entropy T*S    EENTRO =         0.00000000
  eigenvalues    EBANDS =      -240.88065510
  atomic energy  EATOM  =      2086.78124273
  Solvation  Ediel_sol  =         0.00000000
  ---------------------------------------------------
  free energy    TOTEN  =       -10.85368734 eV

  energy without entropy =      -10.85368734  energy(sigma->0) =      -10.85368734


--------------------------------------------------------------------------------------------------------




--------------------------------------- Iteration      1(   3)  ---------------------------------------


     EDDAV:  cpu time    492.5262: real time     28.0139
 BZINTS: Fermi energy:    5.463083;   22.000000 electrons
         Band energy:-0.251028E+03;  BLOECHL correction:   -0.210477
       DOS:  cpu time      0.2649: real time      0.0516
    --------------------------------------------
      LOOP:  cpu time    492.7911: real time     28.0656

 eigenvalue-minimisations  :  6864
 total energy-change (2. order) :-0.1014728E+02  (-0.9576984E+01)
 number of electron      22.0000000 magnetization       1.2000000
 augmentation part       22.0000000 magnetization       1.2000000

 Free energy of the ion-electron system (eV)
  ---------------------------------------------------
  alpha Z        PSCENC =       247.02244180
  Ewald energy   TEWEN  =     -1908.87812676
  -Hartree energ DENC   =      -279.42445411
  -exchange      EXHF   =         0.00000000
  -V(xc)+E(xc)   XCENC  =        52.61736041
  PAW double counting   =      1671.32378679    -1639.41528309
  entropy T*S    EENTRO =         0.00000000
  eigenvalues    EBANDS =      -251.02793144
  atomic energy  EATOM  =      2086.78124273
  Solvation  Ediel_sol  =         0.00000000
  ---------------------------------------------------
  free energy    TOTEN  =       -21.00096368 eV

  energy without entropy =      -21.00096368  energy(sigma->0) =      -21.00096368


--------------------------------------------------------------------------------------------------------




--------------------------------------- Iteration      1(   4)  ---------------------------------------


     EDDAV:  cpu time    369.4352: real time     21.0242
 BZINTS: Fermi energy:    5.444040;   22.000000 electrons
         Band energy:-0.251173E+03;  BLOECHL correction:   -0.208871
       DOS:  cpu time      0.3101: real time      0.0503
    --------------------------------------------
      LOOP:  cpu time    369.7453: real time     21.0746

 eigenvalue-minimisations  :  5008
 total energy-change (2. order) :-0.1451971E+00  (-0.1438927E+00)
 number of electron      22.0000000 magnetization       1.2000000
 augmentation part       22.0000000 magnetization       1.2000000

 Free energy of the ion-electron system (eV)
  ---------------------------------------------------
  alpha Z        PSCENC =       247.02244180
  Ewald energy   TEWEN  =     -1908.87812676
  -Hartree energ DENC   =      -279.42445411
  -exchange      EXHF   =         0.00000000
  -V(xc)+E(xc)   XCENC  =        52.61736041
  PAW double counting   =      1671.32378679    -1639.41528309
  entropy T*S    EENTRO =         0.00000000
  eigenvalues    EBANDS =      -251.17312859
  atomic energy  EATOM  =      2086.78124273
  Solvation  Ediel_sol  =         0.00000000
  ---------------------------------------------------
  free energy    TOTEN  =       -21.14616082 eV

  energy without entropy =      -21.14616082  energy(sigma->0) =      -21.14616082


--------------------------------------------------------------------------------------------------------




--------------------------------------- Iteration      1(   5)  ---------------------------------------


     EDDAV:  cpu time    641.7509: real time     34.2740
 BZINTS: Fermi energy:    5.443431;   22.000000 electrons
         Band energy:-0.251176E+03;  BLOECHL correction:   -0.208645
       DOS:  cpu time      0.2656: real time      0.0558
    CHARGE:  cpu time     27.7038: real time      1.5447
    MIXING:  cpu time      0.0020: real time      0.0016
    --------------------------------------------
      LOOP:  cpu time    669.7223: real time     35.8762

 eigenvalue-minimisations  :  6416
 total energy-change (2. order) :-0.3166825E-02  (-0.3196848E-02)
 number of electron      21.9999998 magnetization       0.3472468
 augmentation part        7.7576796 magnetization      -0.0552175

 Broyden mixing:
  rms(total) = 0.23999E+01    rms(broyden)= 0.23999E+01
  rms(prec ) = 0.28175E+01
  weight for this iteration     100.00

 Free energy of the ion-electron system (eV)
  ---------------------------------------------------
  alpha Z        PSCENC =       247.02244180
  Ewald energy   TEWEN  =     -1908.87812676
  -Hartree energ DENC   =      -279.42445411
  -exchange      EXHF   =         0.00000000
  -V(xc)+E(xc)   XCENC  =        52.61736041
  PAW double counting   =      1671.32378679    -1639.41528309
  entropy T*S    EENTRO =         0.00000000
  eigenvalues    EBANDS =      -251.17629541
  atomic energy  EATOM  =      2086.78124273
  Solvation  Ediel_sol  =         0.00000000
  ---------------------------------------------------
  free energy    TOTEN  =       -21.14932765 eV

  energy without entropy =      -21.14932765  energy(sigma->0) =      -21.14932765


--------------------------------------------------------------------------------------------------------




--------------------------------------- Iteration      1(   6)  ---------------------------------------


    POTLOK:  cpu time      1.6464: real time      0.1177
    SETDIJ:  cpu time      1.2547: real time      0.2678
    EDDIAG:  cpu time     69.0185: real time      4.0018
  RMM-DIIS:  cpu time   3722.3317: real time    163.0698
    ORTHCH:  cpu time      2.6672: real time      0.1584
 BZINTS: Fermi energy:    5.093657;   22.000000 electrons
         Band energy:-0.265213E+03;  BLOECHL correction:   -0.210450
       DOS:  cpu time      0.2687: real time      0.0519
    CHARGE:  cpu time     93.9227: real time      4.7655
    MIXING:  cpu time      0.0012: real time      0.0012
    --------------------------------------------
      LOOP:  cpu time   3891.1111: real time    172.4340

 eigenvalue-minimisations  :  4490
 total energy-change (2. order) : 0.8046771E+00  (-0.7988572E-01)
 number of electron      21.9999998 magnetization       0.1573034
 augmentation part        7.8846973 magnetization      -0.0555683

 Broyden mixing:
  rms(total) = 0.91187E+00    rms(broyden)= 0.91187E+00
  rms(prec ) = 0.11905E+01
  weight for this iteration     100.00

 eigenvalues of (default mixing * dielectric matrix)
  average eigenvalue GAMMA=   1.4996
  1.4996

 Free energy of the ion-electron system (eV)
  ---------------------------------------------------
  alpha Z        PSCENC =       247.02244180
  Ewald energy   TEWEN  =     -1908.87812676
  -Hartree energ DENC   =      -260.07346135
  -exchange      EXHF   =         0.00000000
  -V(xc)+E(xc)   XCENC  =        51.60226423
  PAW double counting   =      2186.72701263    -2158.31252909
  entropy T*S    EENTRO =         0.00000000
  eigenvalues    EBANDS =      -265.21349472
  atomic energy  EATOM  =      2086.78124273
  Solvation  Ediel_sol  =         0.00000000
  ---------------------------------------------------
  free energy    TOTEN  =       -20.34465053 eV

  energy without entropy =      -20.34465053  energy(sigma->0) =      -20.34465053


--------------------------------------------------------------------------------------------------------




--------------------------------------- Iteration      1(   7)  ---------------------------------------


    POTLOK:  cpu time      1.2733: real time      0.1056
    SETDIJ:  cpu time      1.0935: real time      0.2523
    EDDIAG:  cpu time     80.2067: real time      4.5639
  RMM-DIIS:  cpu time    469.5726: real time     24.2317
    ORTHCH:  cpu time      1.6515: real time      0.1021
 BZINTS: Fermi energy:    4.799440;   22.000000 electrons
         Band energy:-0.276994E+03;  BLOECHL correction:   -0.208662
       DOS:  cpu time      0.2811: real time      0.0596
    CHARGE:  cpu time     36.2535: real time      2.0222
    MIXING:  cpu time      0.0014: real time      0.0014
    --------------------------------------------
      LOOP:  cpu time    590.3336: real time     31.3388

 eigenvalue-minimisations  :  5584
 total energy-change (2. order) : 0.1463993E+00  (-0.2155552E+00)
 number of electron      21.9999998 magnetization       0.0369374
 augmentation part        8.0572223 magnetization       0.0361156

 Broyden mixing:
  rms(total) = 0.24619E+00    rms(broyden)= 0.24619E+00
  rms(prec ) = 0.26412E+00
  weight for this iteration     100.00

 eigenvalues of (default mixing * dielectric matrix)
  average eigenvalue GAMMA=   1.0740
  1.6150  0.5330

 Free energy of the ion-electron system (eV)
  ---------------------------------------------------
  alpha Z        PSCENC =       247.02244180
  Ewald energy   TEWEN  =     -1908.87812676
  -Hartree energ DENC   =      -244.35177640
  -exchange      EXHF   =         0.00000000
  -V(xc)+E(xc)   XCENC  =        50.82076264
  PAW double counting   =      2616.20802493    -2590.80704721
  entropy T*S    EENTRO =         0.00000000
  eigenvalues    EBANDS =      -276.99377293
  atomic energy  EATOM  =      2086.78124273
  Solvation  Ediel_sol  =         0.00000000
  ---------------------------------------------------
  free energy    TOTEN  =       -20.19825121 eV

  energy without entropy =      -20.19825121  energy(sigma->0) =      -20.19825121


--------------------------------------------------------------------------------------------------------




--------------------------------------- Iteration      1(   8)  ---------------------------------------


    POTLOK:  cpu time      1.8348: real time      0.1407
    SETDIJ:  cpu time      1.1141: real time      0.2504
    EDDIAG:  cpu time    224.7717: real time     11.6065
  RMM-DIIS:  cpu time    899.1048: real time     43.0411
    ORTHCH:  cpu time      1.5017: real time      0.0913
 BZINTS: Fermi energy:    4.810281;   22.000000 electrons
         Band energy:-0.276462E+03;  BLOECHL correction:   -0.208716
       DOS:  cpu time      0.3235: real time      0.0584
    CHARGE:  cpu time     31.4074: real time      1.7524
    MIXING:  cpu time      0.0016: real time      0.0016
    --------------------------------------------
      LOOP:  cpu time   1160.0596: real time     56.9424

 eigenvalue-minimisations  :  5933
 total energy-change (2. order) :-0.1127763E-01  (-0.1074390E-01)
 number of electron      21.9999998 magnetization       0.0228786
 augmentation part        8.0640869 magnetization       0.0155844

 Broyden mixing:
  rms(total) = 0.11846E+00    rms(broyden)= 0.11846E+00
  rms(prec ) = 0.14628E+00
  weight for this iteration     100.00

 eigenvalues of (default mixing * dielectric matrix)
  average eigenvalue GAMMA=   1.0676
  1.8336  0.6846  0.6846

 Free energy of the ion-electron system (eV)
  ---------------------------------------------------
  alpha Z        PSCENC =       247.02244180
  Ewald energy   TEWEN  =     -1908.87812676
  -Hartree energ DENC   =      -244.68545623
  -exchange      EXHF   =         0.00000000
  -V(xc)+E(xc)   XCENC  =        50.83048487
  PAW double counting   =      2664.44757222    -2639.26618194
  entropy T*S    EENTRO =         0.00000000
  eigenvalues    EBANDS =      -276.46150553
  atomic energy  EATOM  =      2086.78124273
  Solvation  Ediel_sol  =         0.00000000
  ---------------------------------------------------
  free energy    TOTEN  =       -20.20952884 eV

  energy without entropy =      -20.20952884  energy(sigma->0) =      -20.20952884


--------------------------------------------------------------------------------------------------------




--------------------------------------- Iteration      1(   9)  ---------------------------------------


    POTLOK:  cpu time      1.1213: real time      0.0895
    SETDIJ:  cpu time      1.1325: real time      0.2540
    EDDIAG:  cpu time    139.8459: real time      7.4080
  RMM-DIIS:  cpu time    445.7767: real time     23.1723
    ORTHCH:  cpu time      2.1418: real time      0.1234
 BZINTS: Fermi energy:    4.819140;   22.000000 electrons
         Band energy:-0.276045E+03;  BLOECHL correction:   -0.208811
       DOS:  cpu time      0.3239: real time      0.0547
    CHARGE:  cpu time     28.6974: real time      1.6312
    MIXING:  cpu time      0.0013: real time      0.0013
    --------------------------------------------
      LOOP:  cpu time    619.0408: real time     32.7343

 eigenvalue-minimisations  :  5911
 total energy-change (2. order) : 0.1270531E-03  (-0.2410617E-02)
 number of electron      21.9999998 magnetization       0.0181304
 augmentation part        8.0642782 magnetization       0.0156390

 Broyden mixing:
  rms(total) = 0.96459E-01    rms(broyden)= 0.96459E-01
  rms(prec ) = 0.12267E+00
  weight for this iteration     100.00

 eigenvalues of (default mixing * dielectric matrix)
  average eigenvalue GAMMA=   1.0873
  2.0820  0.8338  0.8338  0.5996

 Free energy of the ion-electron system (eV)
  ---------------------------------------------------
  alpha Z        PSCENC =       247.02244180
  Ewald energy   TEWEN  =     -1908.87812676
  -Hartree energ DENC   =      -245.04231334
  -exchange      EXHF   =         0.00000000
  -V(xc)+E(xc)   XCENC  =        50.84704439
  PAW double counting   =      2704.93811003    -2679.83304031
  entropy T*S    EENTRO =         0.00000000
  eigenvalues    EBANDS =      -276.04476032
  atomic energy  EATOM  =      2086.78124273
  Solvation  Ediel_sol  =         0.00000000
  ---------------------------------------------------
  free energy    TOTEN  =       -20.20940179 eV

  energy without entropy =      -20.20940179  energy(sigma->0) =      -20.20940179


--------------------------------------------------------------------------------------------------------




--------------------------------------- Iteration      1(  10)  ---------------------------------------


    POTLOK:  cpu time      1.2512: real time      0.0982
    SETDIJ:  cpu time      1.1597: real time      0.2517
    EDDIAG:  cpu time     76.8353: real time      4.4211
  RMM-DIIS:  cpu time    330.4263: real time     17.6487
    ORTHCH:  cpu time      2.0433: real time      0.1250
 BZINTS: Fermi energy:    4.840337;   22.000000 electrons
         Band energy:-0.275103E+03;  BLOECHL correction:   -0.209010
       DOS:  cpu time      0.3234: real time      0.0519
    CHARGE:  cpu time     28.4341: real time      1.6248
    MIXING:  cpu time      0.0014: real time      0.0014
    --------------------------------------------
      LOOP:  cpu time    440.4747: real time     24.2228

 eigenvalue-minimisations  :  4750
 total energy-change (2. order) : 0.3472756E-02  (-0.5782350E-03)
 number of electron      21.9999998 magnetization      -0.0066027
 augmentation part        8.0560922 magnetization      -0.0029738

 Broyden mixing:
  rms(total) = 0.68016E-01    rms(broyden)= 0.68016E-01
  rms(prec ) = 0.75697E-01
  weight for this iteration     100.00

 eigenvalues of (default mixing * dielectric matrix)
  average eigenvalue GAMMA=   1.3570
  2.6441  1.3761  1.3761  0.6292  0.7596

 Free energy of the ion-electron system (eV)
  ---------------------------------------------------
  alpha Z        PSCENC =       247.02244180
  Ewald energy   TEWEN  =     -1908.87812676
  -Hartree energ DENC   =      -245.96319167
  -exchange      EXHF   =         0.00000000
  -V(xc)+E(xc)   XCENC  =        50.89095488
  PAW double counting   =      2781.32161456    -2756.27761147
  entropy T*S    EENTRO =         0.00000000
  eigenvalues    EBANDS =      -275.10325310
  atomic energy  EATOM  =      2086.78124273
  Solvation  Ediel_sol  =         0.00000000
  ---------------------------------------------------
  free energy    TOTEN  =       -20.20592903 eV

  energy without entropy =      -20.20592903  energy(sigma->0) =      -20.20592903


--------------------------------------------------------------------------------------------------------




--------------------------------------- Iteration      1(  11)  ---------------------------------------


    POTLOK:  cpu time      1.3416: real time      0.1101
    SETDIJ:  cpu time      1.0768: real time      0.2469
    EDDIAG:  cpu time     93.6884: real time      5.1847
  RMM-DIIS:  cpu time    377.9886: real time     20.0876
    ORTHCH:  cpu time      1.6894: real time      0.0974
 BZINTS: Fermi energy:    4.852496;   22.000000 electrons
         Band energy:-0.274555E+03;  BLOECHL correction:   -0.209123
       DOS:  cpu time      0.2917: real time      0.0543
    CHARGE:  cpu time     29.7626: real time      1.6911
    MIXING:  cpu time      0.1121: real time      0.0015
    --------------------------------------------
      LOOP:  cpu time    505.9512: real time     27.4736

 eigenvalue-minimisations  :  5410
 total energy-change (2. order) : 0.5708536E-05  (-0.5529961E-03)
 number of electron      21.9999998 magnetization      -0.0046493
 augmentation part        8.0492130 magnetization      -0.0003070

 Broyden mixing:
  rms(total) = 0.34426E-02    rms(broyden)= 0.34426E-02
  rms(prec ) = 0.42792E-02
  weight for this iteration     100.00

 eigenvalues of (default mixing * dielectric matrix)
  average eigenvalue GAMMA=   1.2738
  2.5880  1.4519  1.4519  0.7963  0.6231  0.7316

 Free energy of the ion-electron system (eV)
  ---------------------------------------------------
  alpha Z        PSCENC =       247.02244180
  Ewald energy   TEWEN  =     -1908.87812676
  -Hartree energ DENC   =      -246.45913054
  -exchange      EXHF   =         0.00000000
  -V(xc)+E(xc)   XCENC  =        50.91433295
  PAW double counting   =      2860.09626630    -2835.12756448
  entropy T*S    EENTRO =         0.00000000
  eigenvalues    EBANDS =      -274.55538532
  atomic energy  EATOM  =      2086.78124273
  Solvation  Ediel_sol  =         0.00000000
  ---------------------------------------------------
  free energy    TOTEN  =       -20.20592332 eV

  energy without entropy =      -20.20592332  energy(sigma->0) =      -20.20592332


--------------------------------------------------------------------------------------------------------




--------------------------------------- Iteration      1(  12)  ---------------------------------------


    POTLOK:  cpu time      1.4705: real time      0.1126
    SETDIJ:  cpu time      1.0098: real time      0.2514
    EDDIAG:  cpu time     80.7900: real time      4.6031
  RMM-DIIS:  cpu time    240.3934: real time     13.2673
    ORTHCH:  cpu time      1.2818: real time      0.0828
 BZINTS: Fermi energy:    4.852682;   22.000000 electrons
         Band energy:-0.274548E+03;  BLOECHL correction:   -0.209124
       DOS:  cpu time      0.3194: real time      0.0522
    --------------------------------------------
      LOOP:  cpu time    325.2649: real time     18.3693

 eigenvalue-minimisations  :  3913
 total energy-change (2. order) :-0.7267654E-04  (-0.5966497E-04)
 number of electron      21.9999998 magnetization      -0.0046493
 augmentation part        8.0492130 magnetization      -0.0003070

 Free energy of the ion-electron system (eV)
  ---------------------------------------------------
  alpha Z        PSCENC =       247.02244180
  Ewald energy   TEWEN  =     -1908.87812676
  -Hartree energ DENC   =      -246.48426220
  -exchange      EXHF   =         0.00000000
  -V(xc)+E(xc)   XCENC  =        50.91555668
  PAW double counting   =      2859.28824212    -2834.30347172
  entropy T*S    EENTRO =         0.00000000
  eigenvalues    EBANDS =      -274.54761865
  atomic energy  EATOM  =      2086.78124273
  Solvation  Ediel_sol  =         0.00000000
  ---------------------------------------------------
  free energy    TOTEN  =       -20.20599600 eV

  energy without entropy =      -20.20599600  energy(sigma->0) =      -20.20599600


--------------------------------------------------------------------------------------------------------




 average (electrostatic) potential at core
  the test charge radii are     1.2125
  (the norm of the test charge is              1.0000)
       1 -35.1717       2 -35.1717



 E-fermi :   4.8527     XC(G=0): -12.3455     alpha+bet :-12.7651

 Fermi energy:         4.8526821757

 spin component 1

 k-point     1 :       0.0000    0.0000    0.0000
  band No.  band energies     occupation 
      1     -25.8117      1.00000
      2     -25.7865      1.00000
      3     -25.7608      1.00000
      4     -24.9077      1.00000
      5     -24.9077      1.00000
      6     -24.9068      1.00000
      7      -1.0613      1.00000
      8       1.1854      1.00000
      9       1.2290      1.00000
     10       5.0911     -0.02648
     11       5.2028     -0.02148
     12       5.3090      0.00000
     13       7.9176      0.00000
     14       8.1717      0.00000
     15      10.2791      0.00000
     16      10.3191      0.00000

 k-point     2 :       0.1429    0.0000    0.0000
  band No.  band energies     occupation 
      1     -25.8096      1.00000
      2     -25.7421      1.00000
      3     -25.7175      1.00000
      4     -24.9993      1.00000
      5     -24.9500      1.00000
      6     -24.9478      1.00000
      7      -0.6597      1.00000
      8       1.4475      1.00000
      9       1.5153      1.00000
     10       5.0806      0.11455
     11       5.1894     -0.03279
     12       5.4957      0.00000
     13       7.3711      0.00000
     14       8.3343      0.00000
     15       9.2014      0.00000
     16       9.2235      0.00000

 k-point     3 :       0.2857    0.0000    0.0000
  band No.  band energies     occupation 
      1     -25.7807      1.00000
      2     -25.6180      1.00000
      3     -25.5966      1.00000
      4     -25.2264      1.00000
      5     -25.0694      1.00000
      6     -25.0635      1.00000
      7       0.4151      1.00000
      8       2.1050      1.00000
      9       2.2417      1.00000
     10       5.1521      0.42280
     11       5.2531     -0.14027
     12       6.0407      0.00000
     13       6.0505      0.00000
     14       7.5619      0.00000
     15       7.6195      0.00000
     16       8.7545      0.00000

 k-point     4 :       0.4286    0.0000    0.0000
  band No.  band energies     occupation 
      1     -25.6797      1.00000
      2     -25.4835      1.00000
      3     -25.4398      1.00000
      4     -25.4232      1.00000
      5     -25.2438      1.00000
      6     -25.2327      1.00000
      7       1.7500      1.00000
      8       2.5540      1.00000
      9       3.1593      1.00000
     10       4.5307      0.99651
     11       5.5067     -0.27464
     12       5.5966      0.00000
     13       6.2943      0.00000
     14       6.3705      0.00000
     15       6.8946      0.00000
     16       7.9589      0.00000

 k-point     5 :       0.0000    0.1429    0.0000
  band No.  band energies     occupation 
      1     -25.7898      1.00000
      2     -25.7657      1.00000
      3     -25.7171      1.00000
      4     -25.0024      1.00000
      5     -24.9509      1.00000
      6     -24.9473      1.00000
      7      -0.6517      1.00000
      8       1.4317      1.00000
      9       1.5484      1.00000
     10       5.0626      0.16786
     11       5.2749     -0.05222
     12       5.3944      0.00000
     13       7.4560      0.00000
     14       8.2704      0.00000
     15       9.1322      0.00000
     16       9.1789      0.00000

 k-point     6 :       0.1429    0.1429    0.0000
  band No.  band energies     occupation 
      1     -25.8756      1.00000
      2     -25.6774      1.00000
      3     -25.6398      1.00000
      4     -25.1667      1.00000
      5     -24.9835      1.00000
      6     -24.9079      1.00000
      7      -0.2888      1.00000
      8       1.6789      1.00000
      9       1.8258      1.00000
     10       4.8208      0.76632
     11       4.9594      0.27499
     12       6.0406     -0.00580
     13       7.4439      0.00000
     14       7.9769      0.00000
     15       8.1634      0.00000
     16       8.1971      0.00000

 k-point     7 :       0.2857    0.1429    0.0000
  band No.  band energies     occupation 
      1     -25.9117      1.00000
      2     -25.5668      1.00000
      3     -25.4697      1.00000
      4     -25.4285      1.00000
      5     -25.0861      1.00000
      6     -24.9602      1.00000
      7       0.6528      1.00000
      8       2.1797      1.00000
      9       2.5971      1.00000
     10       4.5900      1.00012
     11       4.7836      0.81429
     12       6.5041     -0.05082
     13       6.7677      0.00000
     14       6.9105      0.00000
     15       6.9536      0.00000
     16       8.5590      0.00000

 k-point     8 :       0.4286    0.1429    0.0000
  band No.  band energies     occupation 
      1     -25.8532      1.00000
      2     -25.6825      1.00000
      3     -25.4092      1.00000
      4     -25.2794      1.00000
      5     -25.2374      1.00000
      6     -25.0970      1.00000
      7       1.7574      1.00000
      8       2.4348      1.00000
      9       3.4156      1.00000
     10       4.3115      1.00376
     11       4.7531      0.86501
     12       5.3901     -0.04130
     13       6.3490      0.00000
     14       6.4516      0.00000
     15       7.9405      0.00000
     16       9.0623      0.00000

 k-point     9 :       0.0000    0.2857    0.0000
  band No.  band energies     occupation 
      1     -25.7736      1.00000
      2     -25.6374      1.00000
      3     -25.5952      1.00000
      4     -25.2352      1.00000
      5     -25.0729      1.00000
      6     -25.0619      1.00000
      7       0.4419      1.00000
      8       2.1043      1.00000
      9       2.2979      1.00000
     10       5.0948      0.53588
     11       5.2921     -0.13682
     12       5.9538      0.00000
     13       6.1249      0.00000
     14       7.4547      0.00000
     15       7.5696      0.00000
     16       8.7708      0.00000

 k-point    10 :       0.1429    0.2857    0.0000
  band No.  band energies     occupation 
      1     -25.9134      1.00000
      2     -25.5659      1.00000
      3     -25.4764      1.00000
      4     -25.4337      1.00000
      5     -25.0851      1.00000
      6     -24.9636      1.00000
      7       0.6687      1.00000
      8       2.1873      1.00000
      9       2.6250      1.00000
     10       4.5879      1.00331
     11       4.7744      0.81190
     12       6.4839     -0.05095
     13       6.7877      0.00000
     14       6.8795      0.00000
     15       6.9129      0.00000
     16       8.5762      0.00000

 k-point    11 :       0.2857    0.2857    0.0000
  band No.  band energies     occupation 
      1     -26.0424      1.00000
      2     -25.7177      1.00000
      3     -25.4851      1.00000
      4     -25.2692      1.00000
      5     -25.1518      1.00000
      6     -24.9086      1.00000
      7       1.1199      1.00000
      8       2.1291      1.00000
      9       3.6018      1.00000
     10       3.9872      1.00000
     11       4.8140      0.89748
     12       5.1574      0.04122
     13       6.4556      0.00000
     14       7.5427      0.00000
     15       8.1525      0.00000
     16       8.3132      0.00000

 k-point    12 :       0.4286    0.2857    0.0000
  band No.  band energies     occupation 
      1     -26.0640      1.00000
      2     -25.9497      1.00000
      3     -25.3724      1.00000
      4     -25.2533      1.00000
      5     -25.0866      1.00000
      6     -24.9567      1.00000
      7       1.4945      1.00000
      8       1.8461      1.00000
      9       3.8485      1.00000
     10       4.2416      1.00000
     11       4.6129      0.81322
     12       5.0942      0.02323
     13       6.9076      0.00000
     14       7.4677      0.00000
     15       8.8283      0.00000
     16       9.4108      0.00000

 k-point    13 :       0.0000    0.4286    0.0000
  band No.  band energies     occupation 
      1     -25.6848      1.00000
      2     -25.4945      1.00000
      3     -25.4535      1.00000
      4     -25.4210      1.00000
      5     -25.2519      1.00000
      6     -25.2305      1.00000
      7       1.7960      1.00000
      8       2.6148      1.00000
      9       3.1807      1.00000
     10       4.5788      0.99504
     11       5.4132     -0.16871
     12       5.5895      0.00000
     13       6.1821      0.00000
     14       6.3325      0.00000
     15       6.8306      0.00000
     16       7.9246      0.00000

 k-point    14 :       0.1429    0.4286    0.0000
  band No.  band energies     occupation 
      1     -25.8599      1.00000
      2     -25.6910      1.00000
      3     -25.4074      1.00000
      4     -25.2877      1.00000
      5     -25.2356      1.00000
      6     -25.1036      1.00000
      7       1.7809      1.00000
      8       2.4595      1.00000
      9       3.4426      1.00000
     10       4.3385      1.00276
     11       4.7371      0.88495
     12       5.3654     -0.03990
     13       6.2938      0.00000
     14       6.3980      0.00000
     15       7.8981      0.00000
     16       9.0375      0.00000

 k-point    15 :       0.2857    0.4286    0.0000
  band No.  band energies     occupation 
      1     -26.0675      1.00000
      2     -25.9535      1.00000
      3     -25.3716      1.00000
      4     -25.2524      1.00000
      5     -25.0896      1.00000
      6     -24.9595      1.00000
      7       1.4961      1.00000
      8       1.8482      1.00000
      9       3.8407      1.00000
     10       4.2323      1.00000
     11       4.6197      0.80990
     12       5.1095      0.01509
     13       6.9161      0.00000
     14       7.4355      0.00000
     15       8.9099      0.00000
     16       9.3823      0.00000

 k-point    16 :       0.4286    0.4286    0.0000
  band No.  band energies     occupation 
      1     -26.1728      1.00000
      2     -26.1327      1.00000
      3     -25.3257      1.00000
      4     -25.2831      1.00000
      5     -24.9563      1.00000
      6     -24.9092      1.00000
      7       1.2460      1.00000
      8       1.3594      1.00000
      9       3.4163      1.00000
     10       3.5484      1.00000
     11       6.1114     -0.15747
     12       6.4564     -0.07880
     13       7.5624      0.00000
     14       7.9526      0.00000
     15       8.6124      0.00000
     16       9.5734      0.00000

 k-point    17 :       0.0000    0.0000    0.1429
  band No.  band energies     occupation 
      1     -25.7698      1.00000
      2     -25.7653      1.00000
      3     -25.7412      1.00000
      4     -25.0050      1.00000
      5     -24.9503      1.00000
      6     -24.9490      1.00000
      7      -0.6433      1.00000
      8       1.4199      1.00000
      9       1.5787      1.00000
     10       5.1519      0.06611
     11       5.2554     -0.04141
     12       5.2878      0.00000
     13       7.5730      0.00000
     14       8.1743      0.00000
     15       9.0863      0.00000
     16       9.1107      0.00000

 k-point    18 :       0.1429    0.0000    0.1429
  band No.  band energies     occupation 
      1     -25.8658      1.00000
      2     -25.7005      1.00000
      3     -25.6301      1.00000
      4     -25.1660      1.00000
      5     -24.9863      1.00000
      6     -24.9095      1.00000
      7      -0.2803      1.00000
      8       1.6705      1.00000
      9       1.8523      1.00000
     10       4.7441      0.85300
     11       5.0404      0.12389
     12       5.9956     -0.00603
     13       7.5468      0.00000
     14       7.9133      0.00000
     15       8.0908      0.00000
     16       8.1955      0.00000

 k-point    19 :       0.2857    0.0000    0.1429
  band No.  band energies     occupation 
      1     -25.9037      1.00000
      2     -25.5870      1.00000
      3     -25.4613      1.00000
      4     -25.4254      1.00000
      5     -25.0922      1.00000
      6     -24.9608      1.00000
      7       0.6620      1.00000
      8       2.1827      1.00000
      9       2.6103      1.00000
     10       4.5038      1.01412
     11       4.8331      0.74119
     12       6.4291     -0.05172
     13       6.8319      0.00000
     14       6.8867      0.00000
     15       6.9878      0.00000
     16       8.5546      0.00000

 k-point    20 :       0.4286    0.0000    0.1429
  band No.  band energies     occupation 
      1     -25.8467      1.00000
      2     -25.6775      1.00000
      3     -25.4250      1.00000
      4     -25.2738      1.00000
      5     -25.2482      1.00000
      6     -25.0949      1.00000
      7       1.7687      1.00000
      8       2.4460      1.00000
      9       3.4156      1.00000
     10       4.3145      1.00401
     11       4.6657      0.91391
     12       5.3069     -0.03446
     13       6.4434      0.00000
     14       6.5206      0.00000
     15       7.9344      0.00000
     16       9.0680      0.00000

 k-point    21 :       0.0000    0.1429    0.1429
  band No.  band energies     occupation 
      1     -25.8541      1.00000
      2     -25.7231      1.00000
      3     -25.6227      1.00000
      4     -25.1656      1.00000
      5     -24.9884      1.00000
      6     -24.9114      1.00000
      7      -0.2722      1.00000
      8       1.6669      1.00000
      9       1.8728      1.00000
     10       4.6789      0.92134
     11       5.1185      0.03891
     12       5.9458     -0.00634
     13       7.6647      0.00000
     14       7.8503      0.00000
     15       8.0022      0.00000
     16       8.1996      0.00000

 k-point    22 :       0.1429    0.1429    0.1429
  band No.  band energies     occupation 
      1     -25.8276      1.00000
      2     -25.8052      1.00000
      3     -25.4970      1.00000
      4     -25.2979      1.00000
      5     -24.9572      1.00000
      6     -24.9536      1.00000
      7       0.0767      1.00000
      8       2.0043      1.00000
      9       2.0491      1.00000
     10       4.5558      1.01967
     11       4.6749      0.82891
     12       6.4109     -0.05529
     13       6.6240      0.00000
     14       7.7368      0.00000
     15       7.9155      0.00000
     16       9.2595      0.00000

 k-point    23 :       0.2857    0.1429    0.1429
  band No.  band energies     occupation 
      1     -25.9101      1.00000
      2     -25.6739      1.00000
      3     -25.5384      1.00000
      4     -25.3296      1.00000
      5     -25.0857      1.00000
      6     -24.9633      1.00000
      7       0.9558      1.00000
      8       2.5370      1.00000
      9       2.7001      1.00000
     10       4.2826      1.01660
     11       4.3914      1.04582
     12       5.1902      0.09965
     13       7.1485      0.00000
     14       7.6893      0.00000
     15       7.9059      0.00000
     16       8.4480      0.00000

 k-point    24 :       0.4286    0.1429    0.1429
  band No.  band energies     occupation 
      1     -25.8960      1.00000
      2     -25.7630      1.00000
      3     -25.4834      1.00000
      4     -25.2733      1.00000
      5     -25.1714      1.00000
      6     -25.0421      1.00000
      7       1.9312      1.00000
      8       2.6735      1.00000
      9       3.2289      1.00000
     10       3.8762      1.00545
     11       4.6350      0.96545
     12       4.9008      0.26121
     13       6.6951      0.00000
     14       6.9281      0.00000
     15       8.5295      0.00000
     16       8.8125      0.00000

 k-point    25 :       0.0000    0.2857    0.1429
  band No.  band energies     occupation 
      1     -25.8970      1.00000
      2     -25.6056      1.00000
      3     -25.4601      1.00000
      4     -25.4278      1.00000
      5     -25.0966      1.00000
      6     -24.9650      1.00000
      7       0.6867      1.00000
      8       2.1935      1.00000
      9       2.6499      1.00000
     10       4.4207      1.02398
     11       4.8738      0.63068
     12       6.3350     -0.05339
     13       6.8325      0.00000
     14       6.9097      0.00000
     15       6.9859      0.00000
     16       8.5699      0.00000

 k-point    26 :       0.1429    0.2857    0.1429
[...]
  band No.  band energies     occupation 
      1     -26.0209      1.00000
      2     -25.9445      1.00000
      3     -25.4841      1.00000
      4     -25.3012      1.00000
      5     -25.0715      1.00000
      6     -25.0042      1.00000
      7       1.8648      1.00000
      8       2.1705      1.00000
      9       3.5119      1.00000
     10       3.6347      1.00000
     11       4.7242      0.82378
     12       4.7875      0.53477
     13       7.4091      0.00000
     14       7.6700      0.00000
     15       8.8916      0.00000
     16       9.3535      0.00000

 k-point    59 :       0.2857    0.2857    0.4286
  band No.  band energies     occupation 
      1     -25.9452      1.00000
      2     -25.9420      1.00000
      3     -25.5979      1.00000
      4     -25.3450      1.00000
      5     -25.0908      1.00000
      6     -25.0659      1.00000
      7       2.5384      1.00000
      8       2.5671      1.00000
      9       3.4707      1.00000
     10       3.5341      1.00000
     11       4.1543      1.00330
     12       4.5090      0.98445
     13       8.0129      0.00000
     14       8.0898      0.00000
     15       8.8315      0.00000
     16       8.9318      0.00000

 k-point    60 :       0.4286    0.2857    0.4286
  band No.  band energies     occupation 
      1     -25.9547      1.00000
      2     -25.9368      1.00000
      3     -25.5457      1.00000
      4     -25.4064      1.00000
      5     -25.1558      1.00000
      6     -25.1142      1.00000
      7       2.5444      1.00000
      8       2.6771      1.00000
      9       3.2438      1.00000
     10       3.4321      1.00000
     11       4.7319      0.83275
     12       4.8954      0.58142
     13       8.3815      0.00000
     14       8.4490      0.00000
     15       8.7765      0.00000
     16       8.8386      0.00000

 k-point    61 :       0.0000    0.4286    0.4286
  band No.  band energies     occupation 
      1     -26.1669      1.00000
      2     -26.1281      1.00000
      3     -25.3489      1.00000
      4     -25.3038      1.00000
      5     -24.9746      1.00000
      6     -24.9289      1.00000
      7       1.2323      1.00000
      8       1.3402      1.00000
      9       3.1866      1.00000
     10       3.3186      1.00000
     11       6.2294     -0.16485
     12       6.5895     -0.05843
     13       7.8079      0.00000
     14       8.2245      0.00000
     15       8.7254      0.00000
     16       9.7414      0.00000

 k-point    62 :       0.1429    0.4286    0.4286
  band No.  band energies     occupation 
      1     -26.1066      1.00000
      2     -26.0804      1.00000
      3     -25.4095      1.00000
      4     -25.3386      1.00000
      5     -25.0102      1.00000
      6     -24.9908      1.00000
      7       1.6298      1.00000
      8       1.7048      1.00000
      9       3.1669      1.00000
     10       3.2721      1.00000
     11       5.8419     -0.16015
     12       5.9336     -0.12704
     13       8.0117      0.00000
     14       8.2735      0.00000
     15       8.7531      0.00000
     16       9.1969      0.00000

 k-point    63 :       0.2857    0.4286    0.4286
  band No.  band energies     occupation 
      1     -25.9553      1.00000
      2     -25.9369      1.00000
      3     -25.5454      1.00000
      4     -25.4029      1.00000
      5     -25.1643      1.00000
      6     -25.1200      1.00000
      7       2.5073      1.00000
      8       2.6380      1.00000
      9       3.2034      1.00000
     10       3.3931      1.00000
     11       4.7906      0.79859
     12       4.9510      0.47122
     13       8.4337      0.00000
     14       8.5152      0.00000
     15       8.8079      0.00000
     16       8.8840      0.00000

 k-point    64 :       0.4286    0.4286    0.4286
  band No.  band energies     occupation 
      1     -25.8082      1.00000
      2     -25.6910      1.00000
      3     -25.6816      1.00000
      4     -25.4154      1.00000
      5     -25.3992      1.00000
      6     -25.2786      1.00000
      7       3.0400      1.00000
      8       3.4504      1.00000
      9       3.4706      1.00000
     10       3.9793      1.00000
     11       4.0619      1.00000
     12       4.0768      1.09880
     13       8.7164      0.00000
     14       8.7284      0.00000
     15       8.8377      0.00000
     16       8.8385      0.00000


--------------------------------------------------------------------------------------------------------


 soft charge-density along one line, spin component           1
         0         1         2         3         4         5         6         7         8         9
 total charge-density along one line

 soft charge-density along one line, spin component           2
         0         1         2         3         4         5         6         7         8         9
 total charge-density along one line

 pseudopotential strength for first ion, spin component:           1
-28.109   0.000  -0.000   5.979  -0.000   0.000  -0.000  -0.000
  0.000 -28.109  -0.000  -0.000   5.978   0.000   0.000  -0.000
 -0.000  -0.000 -28.109   0.000   0.000   5.979  -0.000   0.000
  5.979  -0.000   0.000   4.217   0.000   0.000   0.000   0.000
 -0.000   5.978   0.000   0.000   4.217   0.000  -0.000   0.000
  0.000   0.000   5.979   0.000   0.000   4.217   0.000  -0.000
 -0.000   0.000  -0.000   0.000  -0.000   0.000  -6.358  -0.000
 -0.000  -0.000   0.000   0.000   0.000  -0.000  -0.000  -6.358
  0.000  -0.000   0.000  -0.000   0.000  -0.000   0.000   0.000
  0.000  -0.000  -0.000  -0.000   0.000   0.000   0.000  -0.000
  0.000  -0.000  -0.000  -0.000   0.000   0.000  -0.000  -0.000
 -0.000   0.000  -0.000   0.000  -0.000   0.000  -7.215  -0.000
 -0.000  -0.000   0.000   0.000   0.000  -0.000  -0.000  -7.215
  0.000  -0.000   0.000  -0.000   0.000  -0.000   0.000   0.000
  0.000  -0.000  -0.000  -0.000   0.000   0.000   0.000  -0.000
  0.000  -0.000  -0.000  -0.000   0.000   0.000  -0.000  -0.000
  0.000   0.000   0.000  -0.000   0.000   0.000   0.000  -0.000
 -0.000  -0.000  -0.000  -0.000  -0.000  -0.000  -0.000   0.000
 pseudopotential strength for first ion, spin component:           2
-28.109   0.000  -0.000   5.979  -0.000   0.000  -0.000  -0.000
  0.000 -28.109  -0.000  -0.000   5.979   0.000   0.000  -0.000
 -0.000  -0.000 -28.109   0.000   0.000   5.979  -0.000   0.000
  5.979  -0.000   0.000   4.217   0.000   0.000   0.000   0.000
 -0.000   5.979   0.000   0.000   4.217   0.000  -0.000   0.000
  0.000   0.000   5.979   0.000   0.000   4.217   0.000  -0.000
 -0.000   0.000  -0.000   0.000  -0.000   0.000  -6.358  -0.000
 -0.000  -0.000   0.000   0.000   0.000  -0.000  -0.000  -6.358
  0.000  -0.000   0.000  -0.000   0.000  -0.000   0.000   0.000
  0.000  -0.000  -0.000  -0.000   0.000   0.000   0.000   0.000
  0.000  -0.000  -0.000  -0.000   0.000   0.000  -0.000  -0.000
 -0.000   0.000  -0.000   0.000  -0.000   0.000  -7.215  -0.000
 -0.000  -0.000   0.000   0.000   0.000  -0.000  -0.000  -7.215
  0.000  -0.000   0.000  -0.000   0.000  -0.000   0.000   0.000
  0.000  -0.000  -0.000  -0.000   0.000   0.000   0.000   0.000
  0.000  -0.000  -0.000  -0.000   0.000   0.000  -0.000  -0.000
  0.000   0.000   0.000  -0.000  -0.000   0.000   0.000  -0.000
 -0.000  -0.000  -0.000  -0.000  -0.000  -0.000  -0.000   0.000
 total augmentation occupancy for first ion, spin component:           1
  1.993   0.000   0.000  -0.013  -0.000  -0.000   0.000  -0.000   0.000   0.000   0.000   0.000  -0.000   0.000   0.000   0.000
  0.000   1.993   0.000  -0.000  -0.013  -0.000  -0.000  -0.000   0.000   0.000  -0.000   0.000  -0.000   0.000  -0.000  -0.000
  0.000   0.000   1.993  -0.000  -0.000  -0.013  -0.000   0.000   0.000   0.000   0.000   0.000   0.000   0.000   0.000   0.000
 -0.013  -0.000  -0.000   0.204   0.000   0.000   0.000   0.000   0.000   0.000   0.000   0.000   0.000   0.000   0.000  -0.000
 -0.000  -0.013  -0.000   0.000   0.205   0.000   0.000   0.000   0.000   0.000   0.000   0.000   0.000   0.000   0.000   0.000
 -0.000  -0.000  -0.013   0.000   0.000   0.203   0.000   0.000  -0.000   0.000   0.000   0.000   0.000   0.000   0.000   0.000
  0.000   0.000  -0.000   0.000   0.000   0.000   6.031   0.000  -0.000   0.000   0.000  -3.356  -0.000   0.000  -0.000  -0.000
  0.000  -0.000   0.000   0.000   0.000   0.000   0.000   5.944   0.000   0.000  -0.000  -0.000  -3.315  -0.000  -0.000   0.000
  0.000   0.000   0.000   0.000   0.000  -0.000  -0.000   0.000   5.663   0.000   0.020   0.000  -0.000  -3.334  -0.000  -0.010
  0.000   0.000   0.000   0.000   0.000   0.000   0.000   0.000   0.000   5.987   0.000  -0.000  -0.000  -0.000  -3.335  -0.000
  0.000   0.000   0.000   0.000   0.000   0.000   0.000  -0.000   0.020   0.000   5.592  -0.000   0.000  -0.010  -0.000  -3.299
  0.000   0.000   0.000   0.000   0.000   0.000  -3.356  -0.000   0.000  -0.000  -0.000   1.905   0.000  -0.000   0.000  -0.000
 -0.000  -0.000   0.000   0.000   0.000   0.000  -0.000  -3.315  -0.000  -0.000   0.000   0.000   1.886   0.000   0.000  -0.000
  0.000  -0.000  -0.000   0.000   0.000  -0.000   0.000  -0.000  -3.334  -0.000  -0.010  -0.000   0.000   1.982   0.000   0.005
  0.000   0.000   0.000   0.000   0.000   0.000  -0.000  -0.000  -0.000  -3.335  -0.000   0.000   0.000   0.000   1.896   0.000
  0.000   0.000  -0.000   0.000   0.000   0.000  -0.000   0.000  -0.010  -0.000  -3.299  -0.000  -0.000   0.005   0.000   1.964
  0.000   0.000   0.000   0.000   0.000   0.000   0.000   0.000   0.014  -0.000  -0.007  -0.000   0.000  -0.008   0.000   0.004
  0.000   0.000   0.000   0.000   0.000   0.000   0.000   0.000   0.000   0.000  -0.000  -0.000   0.000  -0.000   0.000   0.000
 total augmentation occupancy for first ion, spin component:           2
  0.000   0.000   0.000   0.000   0.000   0.000   0.000  -0.000   0.000   0.000   0.000   0.000  -0.000   0.000   0.000  -0.000
  0.000   0.000   0.000   0.000   0.000   0.000   0.000   0.000   0.000   0.000   0.000   0.000   0.000  -0.000   0.000   0.000
  0.000   0.000   0.000   0.000   0.000   0.000   0.000   0.000   0.000  -0.000  -0.000   0.000   0.000   0.000   0.000   0.000
  0.000   0.000   0.000  -0.000  -0.000  -0.000   0.000   0.000   0.000   0.000   0.000   0.000   0.000   0.000   0.000  -0.000
  0.000   0.000   0.000  -0.000  -0.000  -0.000   0.000   0.000   0.000   0.000  -0.000   0.000   0.000   0.000   0.000   0.000
  0.000   0.000   0.000  -0.000  -0.000  -0.000   0.000   0.000   0.000   0.000   0.000   0.000   0.000   0.000   0.000   0.000
  0.000   0.000   0.000  -0.000   0.000   0.000  -0.003  -0.000   0.000  -0.000   0.000   0.001   0.000  -0.000   0.000  -0.000
  0.000   0.000   0.000   0.000   0.000   0.000  -0.000  -0.004  -0.000  -0.000   0.000   0.000   0.002  -0.000   0.000  -0.000
  0.000   0.000   0.000   0.000   0.000   0.000   0.000  -0.000  -0.006  -0.000   0.000  -0.000  -0.000   0.004  -0.000  -0.000
  0.000   0.000   0.000  -0.000   0.000   0.000  -0.000  -0.000  -0.000  -0.003  -0.000   0.000   0.000  -0.000   0.002   0.000
  0.000   0.000  -0.000   0.000  -0.000   0.000   0.000   0.000   0.000  -0.000  -0.006  -0.000  -0.000  -0.000   0.000   0.004
  0.000   0.000  -0.000   0.000   0.000   0.000   0.001   0.000  -0.000   0.000  -0.000  -0.001  -0.000   0.000  -0.000   0.000
  0.000   0.000   0.000   0.000   0.000   0.000   0.000   0.002  -0.000   0.000  -0.000  -0.000  -0.001   0.000  -0.000   0.000
  0.000   0.000   0.000   0.000   0.000   0.000  -0.000  -0.000   0.004  -0.000  -0.000   0.000   0.000  -0.003   0.000   0.000
  0.000   0.000   0.000   0.000   0.000   0.000   0.000   0.000  -0.000   0.002   0.000  -0.000  -0.000   0.000  -0.001  -0.000
  0.000   0.000   0.000   0.000   0.000   0.000  -0.000  -0.000  -0.000   0.000   0.004   0.000   0.000   0.000  -0.000  -0.003
  0.000  -0.000   0.000   0.000   0.000   0.000   0.000  -0.000   0.000  -0.000  -0.000   0.000   0.000  -0.000   0.000   0.000
 -0.000   0.000   0.000   0.000   0.000   0.000   0.000   0.000   0.000   0.000  -0.000   0.000  -0.000  -0.000   0.000   0.000


------------------------ aborting loop because EDIFF is reached ----------------------------------------





 total charge

# of ion       s       p       d       tot
------------------------------------------
    1        0.419   6.291   3.082   9.791
    2        0.419   6.291   3.082   9.791
--------------------------------------------------
tot          0.838  12.582   6.163  19.583



 magnetization (x)

# of ion       s       p       d       tot
------------------------------------------
    1       -0.000  -0.000  -0.001  -0.001
    2       -0.000  -0.000  -0.001  -0.001
--------------------------------------------------
tot         -0.000  -0.000  -0.002  -0.002

    CHARGE:  cpu time     33.3630: real time      1.8535
    FORLOC:  cpu time      0.1079: real time      0.0020
    FORNL :  cpu time    171.7886: real time      9.1663
    STRESS:  cpu time    419.2080: real time     23.1895
    FORCOR:  cpu time      1.5077: real time      0.1130
    FORHAR:  cpu time      0.1865: real time      0.0134
    MIXING:  cpu time      0.0021: real time      0.0021
    OFIELD:  cpu time      0.0000: real time      0.0000

  FORCE on cell =-STRESS in cart. coord.  units (eV):
  Direction    XX          YY          ZZ          XY          YZ          ZX
  --------------------------------------------------------------------------------------
  Alpha Z   247.02244   247.02244   247.02244
  Ewald    -637.25659  -636.46152  -635.15988     0.00000    -0.00000    -0.00000
  Hartree    81.67656    82.09554    82.70905    -0.00000    -0.00000    -0.00000
  E(xc)     -95.06239   -95.06001   -95.05729     0.00000    -0.00000    -0.00000
  Local     205.20236   203.94595   202.01831    -0.00000    -0.00000    -0.00000
  n-local   -84.71316   -84.55889   -84.39321     0.73034     0.88478     0.81482
  augment    53.57690    53.56816    53.55156     0.00000     0.00000     0.00000
  Kinetic   229.16787   229.38149   229.57706     0.28426     0.21978     0.26655
  Fock        0.00000     0.00000     0.00000     0.00000     0.00000     0.00000
  -------------------------------------------------------------------------------------
  Total      -0.38601    -0.06683     0.26805     0.00000     0.00000     0.00000
  in kB     -16.87329    -2.92133    11.71683     0.00000     0.00000     0.00000
  external pressure =       -2.69 kB  Pullay stress =        0.00 kB


 VOLUME and BASIS-vectors are now :
 -----------------------------------------------------------------------------
  energy-cutoff  :      520.00
  volume of cell :       36.65
      direct lattice vectors                 reciprocal lattice vectors
     3.355108971  0.000000000  0.000000000     0.298052912 -0.000000000  0.000000000
     0.000000000  3.321890070  0.000000000     0.000000000  0.301033441  0.000000000
     0.000000000  0.000000000  3.288671170    -0.000000000 -0.000000000  0.304074183

  length of vectors
     3.355108971  3.321890070  3.288671170     0.298052912  0.301033441  0.304074183


 FORCES acting on ions
    electron-ion (+dipol)            ewald-force                    non-local-force                 convergence-correction
 -----------------------------------------------------------------------------------------------
   -.135E-13 -.128E-13 -.118E-13   -.110E-13 -.296E-14 -.343E-14   -.652E-21 0.765E-22 0.399E-21   -.791E-14 -.197E-13 0.333E-13
   0.120E-12 0.151E-11 0.161E-11   0.105E-13 0.443E-15 0.249E-15   -.513E-23 0.535E-22 -.314E-21   0.833E-14 -.480E-13 -.165E-14
 -----------------------------------------------------------------------------------------------
   0.107E-12 0.150E-11 0.160E-11   -.447E-15 -.252E-14 -.318E-14   -.658E-21 0.130E-21 0.854E-22   0.425E-15 -.677E-13 0.317E-13


 POSITION                                       TOTAL-FORCE (eV/Angst)
 -----------------------------------------------------------------------------------
      0.00000      0.00000      0.00000        -0.000000     -0.000000     -0.000000
      1.67755      1.66095      1.64434         0.000000      0.000000      0.000000
 -----------------------------------------------------------------------------------
    total drift:                                0.000000      0.000000      0.000000


--------------------------------------------------------------------------------------------------------



  FREE ENERGIE OF THE ION-ELECTRON SYSTEM (eV)
  ---------------------------------------------------
  free  energy   TOTEN  =       -20.20599600 eV

  energy  without entropy=      -20.20599600  energy(sigma->0) =      -20.20599600



--------------------------------------------------------------------------------------------------------


    POTLOK:  cpu time      2.3994: real time      0.3529


--------------------------------------------------------------------------------------------------------


     LOOP+:  cpu time  10447.4271: real time    525.8117
 -----------------------------------------------------------------------------
|                                                                             |
|           W    W    AA    RRRRR   N    N  II  N    N   GGGG   !!!           |
|           W    W   A  A   R    R  NN   N  II  NN   N  G    G  !!!           |
|           W    W  A    A  R    R  N N  N  II  N N  N  G       !!!           |
|           W WW W  AAAAAA  RRRRR   N  N N  II  N  N N  G  GGG   !            |
|           WW  WW  A    A  R   R   N   NN  II  N   NN  G    G                |
|           W    W  A    A  R    R  N    N  II  N    N   GGGG   !!!           |
|                                                                             |
|     Tetrahedron method does not include variations of the Fermi             |
|     occupations, so forces and stress will be inaccurate. We suggest        |
|     using a different smearing scheme ISMEAR = 1 or 2 for metals in         |
|     relaxations.                                                            |
|                                                                             |
 -----------------------------------------------------------------------------

    4ORBIT:  cpu time      0.0000: real time      0.0000



 total charge

# of ion       s       p       d       tot
------------------------------------------
    1        0.419   6.291   3.082   9.791
    2        0.419   6.291   3.082   9.791
--------------------------------------------------
tot          0.838  12.582   6.163  19.583



 magnetization (x)

# of ion       s       p       d       tot
------------------------------------------
    1       -0.000  -0.000  -0.001  -0.001
    2       -0.000  -0.000  -0.001  -0.001
--------------------------------------------------
tot         -0.000  -0.000  -0.002  -0.002

 BZINTS: Fermi energy:    4.852682;   22.000000 electrons
         Band energy:-0.274548E+03;  BLOECHL correction:   -0.209124

 total amount of memory used by VASP MPI-rank0    86030. kBytes
=======================================================================

   base      :      30000. kBytes
   nonlr-proj:       3732. kBytes
   fftplans  :       5340. kBytes
   grid      :      12719. kBytes
   one-center:         62. kBytes
   wavefun   :      34177. kBytes

  
  
 General timing and accounting informations for this job:
 ========================================================
  
                  Total CPU time used (sec):    10488.375
                            User time (sec):    10254.888
                          System time (sec):      233.487
                         Elapsed time (sec):      528.959
  
                   Maximum memory used (kb):      340600.
                   Average memory used (kb):          N/A
  
                          Minor page faults:      5642701
                          Major page faults:           87
                 Voluntary context switches:      2466650
