   4   4   1   0
  0.3974495E+02  0.5417272E-09  0.5417272E-09  0.5417272E-09  0.5000000E-15
  1.000000000000000E-004
  CAR 
 unknown system                          
      7.22909723    -41.90956213  301      2.20459057      1.00000000
    -41.910  0.0000E+00  0.0000E+00  0.0000E+00  0.0000E+00
    -41.746  0.0000E+00  0.0000E+00  0.0000E+00  0.0000E+00
    -41.582  0.0000E+00  0.0000E+00  0.0000E+00  0.0000E+00
    -41.418  0.0000E+00  0.0000E+00  0.0000E+00  0.0000E+00
    -41.254  0.0000E+00  0.0000E+00  0.0000E+00  0.0000E+00
    -41.091  0.0000E+00  0.0000E+00  0.0000E+00  0.0000E+00
    -40.927  0.0000E+00  0.0000E+00  0.0000E+00  0.0000E+00
    -40.763  0.0000E+00  0.0000E+00  0.0000E+00  0.0000E+00
    -40.599  0.0000E+00  0.0000E+00  0.0000E+00  0.0000E+00
    -40.435  0.0000E+00  0.0000E+00  0.0000E+00  0.0000E+00
    -40.272  0.0000E+00  0.0000E+00  0.0000E+00  0.0000E+00
    -40.108  0.3042E-02  0.2916E-02  0.4982E-03  0.4776E-03
    -39.944  0.7720E-01  0.7402E-01  0.1314E-01  0.1260E-01
    -39.780  0.1878E+01  0.1807E+01  0.3207E+00  0.3085E+00
    -39.616  0.1504E+02  0.1490E+02  0.2785E+01  0.2749E+01
    -39.453  0.7022E+01  0.7224E+01  0.3935E+01  0.3932E+01
    -39.289  0.3820E+00  0.3981E+00  0.3998E+01  0.3997E+01
    -39.125  0.0000E+00  0.0000E+00  0.4000E+01  0.4000E+01
    -38.961  0.0000E+00  0.0000E+00  0.4000E+01  0.4000E+01
    -38.797  0.0000E+00  0.0000E+00  0.4000E+01  0.4000E+01
    -38.634  0.0000E+00  0.0000E+00  0.4000E+01  0.4000E+01
    -38.470  0.0000E+00  0.0000E+00  0.4000E+01  0.4000E+01
    -38.306  0.0000E+00  0.0000E+00  0.4000E+01  0.4000E+01
    -38.142  0.0000E+00  0.0000E+00  0.4000E+01  0.4000E+01
    -37.978  0.0000E+00  0.0000E+00  0.4000E+01  0.4000E+01
    -37.815  0.0000E+00  0.0000E+00  0.4000E+01  0.4000E+01
    -37.651  0.0000E+00  0.0000E+00  0.4000E+01  0.4000E+01
    -37.487  0.0000E+00  0.0000E+00  0.4000E+01  0.4000E+01
    -37.323  0.0000E+00  0.0000E+00  0.4000E+01  0.4000E+01
    -37.159  0.0000E+00  0.0000E+00  0.4000E+01  0.4000E+01
    -36.996  0.0000E+00  0.0000E+00  0.4000E+01  0.4000E+01
    -36.832  0.0000E+00  0.0000E+00  0.4000E+01  0.4000E+01
    -36.668  0.0000E+00  0.0000E+00  0.4000E+01  0.4000E+01
    -36.504  0.0000E+00  0.0000E+00  0.4000E+01  0.4000E+01
    -36.341  0.0000E+00  0.0000E+00  0.4000E+01  0.4000E+01
    -36.177  0.0000E+00  0.0000E+00  0.4000E+01  0.4000E+01
    -36.013  0.0000E+00  0.0000E+00  0.4000E+01  0.4000E+01
    -35.849  0.0000E+00  0.0000E+00  0.4000E+01  0.4000E+01
    -35.685  0.0000E+00  0.0000E+00  0.4000E+01  0.4000E+01
    -35.522  0.0000E+00  0.0000E+00  0.4000E+01  0.4000E+01
    -35.358  0.0000E+00  0.0000E+00  0.4000E+01  0.4000E+01
    -35.194  0.0000E+00  0.0000E+00  0.4000E+01  0.4000E+01
    -35.030  0.0000E+00  0.0000E+00  0.4000E+01  0.4000E+01
    -34.866  0.0000E+00  0.0000E+00  0.4000E+01  0.4000E+01
    -34.703  0.0000E+00  0.0000E+00  0.4000E+01  0.4000E+01
    -34.539  0.0000E+00  0.0000E+00  0.4000E+01  0.4000E+01
    -34.375  0.0000E+00  0.0000E+00  0.4000E+01  0.4000E+01
    -34.211  0.0000E+00  0.0000E+00  0.4000E+01  0.4000E+01
    -34.047  0.0000E+00  0.0000E+00  0.4000E+01  0.4000E+01
    -33.884  0.0000E+00  0.0000E+00  0.4000E+01  0.4000E+01
    -33.720  0.0000E+00  0.0000E+00  0.4000E+01  0.4000E+01
    -33.556  0.0000E+00  0.0000E+00  0.4000E+01  0.4000E+01
    -33.392  0.0000E+00  0.0000E+00  0.4000E+01  0.4000E+01
    -33.228  0.0000E+00  0.0000E+00  0.4000E+01  0.4000E+01
    -33.065  0.0000E+00  0.0000E+00  0.4000E+01  0.4000E+01
    -32.901  0.0000E+00  0.0000E+00  0.4000E+01  0.4000E+01
    -32.737  0.0000E+00  0.0000E+00  0.4000E+01  0.4000E+01
    -32.573  0.0000E+00  0.0000E+00  0.4000E+01  0.4000E+01
    -32.409  0.0000E+00  0.0000E+00  0.4000E+01  0.4000E+01
    -32.246  0.0000E+00  0.0000E+00  0.4000E+01  0.4000E+01
    -32.082  0.0000E+00  0.0000E+00  0.4000E+01  0.4000E+01
    -31.918  0.0000E+00  0.0000E+00  0.4000E+01  0.4000E+01
    -31.754  0.0000E+00  0.0000E+00  0.4000E+01  0.4000E+01
    -31.590  0.0000E+00  0.0000E+00  0.4000E+01  0.4000E+01
    -31.427  0.0000E+00  0.0000E+00  0.4000E+01  0.4000E+01
    -31.263  0.0000E+00  0.0000E+00  0.4000E+01  0.4000E+01
    -31.099  0.0000E+00  0.0000E+00  0.4000E+01  0.4000E+01
    -30.935  0.0000E+00  0.0000E+00  0.4000E+01  0.4000E+01
    -30.771  0.0000E+00  0.0000E+00  0.4000E+01  0.4000E+01
    -30.608  0.0000E+00  0.0000E+00  0.4000E+01  0.4000E+01
    -30.444  0.0000E+00  0.0000E+00  0.4000E+01  0.4000E+01
    -30.280  0.0000E+00  0.0000E+00  0.4000E+01  0.4000E+01
    -30.116  0.0000E+00  0.0000E+00  0.4000E+01  0.4000E+01
    -29.952  0.0000E+00  0.0000E+00  0.4000E+01  0.4000E+01
    -29.789  0.0000E+00  0.0000E+00  0.4000E+01  0.4000E+01
    -29.625  0.0000E+00  0.0000E+00  0.4000E+01  0.4000E+01
    -29.461  0.0000E+00  0.0000E+00  0.4000E+01  0.4000E+01
    -29.297  0.0000E+00  0.0000E+00  0.4000E+01  0.4000E+01
    -29.134  0.0000E+00  0.0000E+00  0.4000E+01  0.4000E+01
    -28.970  0.0000E+00  0.0000E+00  0.4000E+01  0.4000E+01
    -28.806  0.0000E+00  0.0000E+00  0.4000E+01  0.4000E+01
    -28.642  0.0000E+00  0.0000E+00  0.4000E+01  0.4000E+01
    -28.478  0.0000E+00  0.0000E+00  0.4000E+01  0.4000E+01
    -28.315  0.0000E+00  0.0000E+00  0.4000E+01  0.4000E+01
    -28.151  0.0000E+00  0.0000E+00  0.4000E+01  0.4000E+01
    -27.987  0.0000E+00  0.0000E+00  0.4000E+01  0.4000E+01
    -27.823  0.0000E+00  0.0000E+00  0.4000E+01  0.4000E+01
    -27.659  0.0000E+00  0.0000E+00  0.4000E+01  0.4000E+01
    -27.496  0.0000E+00  0.0000E+00  0.4000E+01  0.4000E+01
    -27.332  0.0000E+00  0.0000E+00  0.4000E+01  0.4000E+01
    -27.168  0.0000E+00  0.0000E+00  0.4000E+01  0.4000E+01
    -27.004  0.0000E+00  0.0000E+00  0.4000E+01  0.4000E+01
    -26.840  0.0000E+00  0.0000E+00  0.4000E+01  0.4000E+01
    -26.677  0.0000E+00  0.0000E+00  0.4000E+01  0.4000E+01
    -26.513  0.0000E+00  0.0000E+00  0.4000E+01  0.4000E+01
    -26.349  0.0000E+00  0.0000E+00  0.4000E+01  0.4000E+01
    -26.185  0.0000E+00  0.0000E+00  0.4000E+01  0.4000E+01
    -26.021  0.0000E+00  0.0000E+00  0.4000E+01  0.4000E+01
    -25.858  0.0000E+00  0.0000E+00  0.4000E+01  0.4000E+01
    -25.694  0.0000E+00  0.0000E+00  0.4000E+01  0.4000E+01
    -25.530  0.0000E+00  0.0000E+00  0.4000E+01  0.4000E+01
    -25.366  0.0000E+00  0.0000E+00  0.4000E+01  0.4000E+01
    -25.202  0.0000E+00  0.0000E+00  0.4000E+01  0.4000E+01
    -25.039  0.0000E+00  0.0000E+00  0.4000E+01  0.4000E+01
    -24.875  0.0000E+00  0.0000E+00  0.4000E+01  0.4000E+01
    -24.711  0.0000E+00  0.0000E+00  0.4000E+01  0.4000E+01
    -24.547  0.0000E+00  0.0000E+00  0.4000E+01  0.4000E+01
    -24.383  0.0000E+00  0.0000E+00  0.4000E+01  0.4000E+01
    -24.220  0.0000E+00  0.0000E+00  0.4000E+01  0.4000E+01
    -24.056  0.0000E+00  0.0000E+00  0.4000E+01  0.4000E+01
    -23.892  0.0000E+00  0.0000E+00  0.4000E+01  0.4000E+01
    -23.728  0.0000E+00  0.0000E+00  0.4000E+01  0.4000E+01
    -23.564  0.0000E+00  0.0000E+00  0.4000E+01  0.4000E+01
    -23.401  0.0000E+00  0.0000E+00  0.4000E+01  0.4000E+01
    -23.237  0.0000E+00  0.0000E+00  0.4000E+01  0.4000E+01
    -23.073  0.0000E+00  0.0000E+00  0.4000E+01  0.4000E+01
    -22.909  0.0000E+00  0.0000E+00  0.4000E+01  0.4000E+01
    -22.745  0.0000E+00  0.0000E+00  0.4000E+01  0.4000E+01
    -22.582  0.0000E+00  0.0000E+00  0.4000E+01  0.4000E+01
    -22.418  0.0000E+00  0.0000E+00  0.4000E+01  0.4000E+01
    -22.254  0.0000E+00  0.0000E+00  0.4000E+01  0.4000E+01
    -22.090  0.0000E+00  0.0000E+00  0.4000E+01  0.4000E+01
    -21.927  0.0000E+00  0.0000E+00  0.4000E+01  0.4000E+01
    -21.763  0.0000E+00  0.0000E+00  0.4000E+01  0.4000E+01
    -21.599  0.0000E+00  0.0000E+00  0.4000E+01  0.4000E+01
    -21.435  0.0000E+00  0.0000E+00  0.4000E+01  0.4000E+01
    -21.271  0.3116E-03  0.2939E-03  0.4000E+01  0.4000E+01
    -21.108  0.1342E-01  0.1288E-01  0.4002E+01  0.4002E+01
    -20.944  0.3464E+00  0.3323E+00  0.4059E+01  0.4057E+01
    -20.780  0.7415E+01  0.7166E+01  0.5274E+01  0.5230E+01
    -20.616  0.4070E+02  0.4037E+02  0.1194E+02  0.1184E+02
    -20.452  0.2312E+02  0.2364E+02  0.1573E+02  0.1572E+02
    -20.289  0.1501E+01  0.1569E+01  0.1599E+02  0.1599E+02
    -20.125  0.0000E+00  0.0000E+00  0.1600E+02  0.1600E+02
    -19.961  0.0000E+00  0.0000E+00  0.1600E+02  0.1600E+02
    -19.797  0.0000E+00  0.0000E+00  0.1600E+02  0.1600E+02
    -19.633  0.0000E+00  0.0000E+00  0.1600E+02  0.1600E+02
    -19.470  0.0000E+00  0.0000E+00  0.1600E+02  0.1600E+02
    -19.306  0.0000E+00  0.0000E+00  0.1600E+02  0.1600E+02
    -19.142  0.0000E+00  0.0000E+00  0.1600E+02  0.1600E+02
    -18.978  0.0000E+00  0.0000E+00  0.1600E+02  0.1600E+02
    -18.814  0.0000E+00  0.0000E+00  0.1600E+02  0.1600E+02
    -18.651  0.0000E+00  0.0000E+00  0.1600E+02  0.1600E+02
    -18.487  0.0000E+00  0.0000E+00  0.1600E+02  0.1600E+02
    -18.323  0.0000E+00  0.0000E+00  0.1600E+02  0.1600E+02
    -18.159  0.0000E+00  0.0000E+00  0.1600E+02  0.1600E+02
    -17.995  0.0000E+00  0.0000E+00  0.1600E+02  0.1600E+02
    -17.832  0.0000E+00  0.0000E+00  0.1600E+02  0.1600E+02
    -17.668  0.0000E+00  0.0000E+00  0.1600E+02  0.1600E+02
    -17.504  0.0000E+00  0.0000E+00  0.1600E+02  0.1600E+02
    -17.340  0.0000E+00  0.0000E+00  0.1600E+02  0.1600E+02
    -17.176  0.0000E+00  0.0000E+00  0.1600E+02  0.1600E+02
    -17.013  0.0000E+00  0.0000E+00  0.1600E+02  0.1600E+02
    -16.849  0.0000E+00  0.0000E+00  0.1600E+02  0.1600E+02
    -16.685  0.0000E+00  0.0000E+00  0.1600E+02  0.1600E+02
    -16.521  0.0000E+00  0.0000E+00  0.1600E+02  0.1600E+02
    -16.357  0.0000E+00  0.0000E+00  0.1600E+02  0.1600E+02
    -16.194  0.0000E+00  0.0000E+00  0.1600E+02  0.1600E+02
    -16.030  0.0000E+00  0.0000E+00  0.1600E+02  0.1600E+02
    -15.866  0.0000E+00  0.0000E+00  0.1600E+02  0.1600E+02
    -15.702  0.0000E+00  0.0000E+00  0.1600E+02  0.1600E+02
    -15.538  0.0000E+00  0.0000E+00  0.1600E+02  0.1600E+02
    -15.375  0.0000E+00  0.0000E+00  0.1600E+02  0.1600E+02
    -15.211  0.0000E+00  0.0000E+00  0.1600E+02  0.1600E+02
    -15.047  0.0000E+00  0.0000E+00  0.1600E+02  0.1600E+02
    -14.883  0.0000E+00  0.0000E+00  0.1600E+02  0.1600E+02
    -14.720  0.0000E+00  0.0000E+00  0.1600E+02  0.1600E+02
    -14.556  0.0000E+00  0.0000E+00  0.1600E+02  0.1600E+02
    -14.392  0.0000E+00  0.0000E+00  0.1600E+02  0.1600E+02
    -14.228  0.0000E+00  0.0000E+00  0.1600E+02  0.1600E+02
    -14.064  0.0000E+00  0.0000E+00  0.1600E+02  0.1600E+02
    -13.901  0.0000E+00  0.0000E+00  0.1600E+02  0.1600E+02
    -13.737  0.0000E+00  0.0000E+00  0.1600E+02  0.1600E+02
    -13.573  0.0000E+00  0.0000E+00  0.1600E+02  0.1600E+02
    -13.409  0.0000E+00  0.0000E+00  0.1600E+02  0.1600E+02
    -13.245  0.0000E+00  0.0000E+00  0.1600E+02  0.1600E+02
    -13.082  0.0000E+00  0.0000E+00  0.1600E+02  0.1600E+02
    -12.918  0.0000E+00  0.0000E+00  0.1600E+02  0.1600E+02
    -12.754  0.0000E+00  0.0000E+00  0.1600E+02  0.1600E+02
    -12.590  0.0000E+00  0.0000E+00  0.1600E+02  0.1600E+02
    -12.426  0.0000E+00  0.0000E+00  0.1600E+02  0.1600E+02
    -12.263  0.0000E+00  0.0000E+00  0.1600E+02  0.1600E+02
    -12.099  0.0000E+00  0.0000E+00  0.1600E+02  0.1600E+02
    -11.935  0.0000E+00  0.0000E+00  0.1600E+02  0.1600E+02
    -11.771  0.0000E+00  0.0000E+00  0.1600E+02  0.1600E+02
    -11.607  0.0000E+00  0.0000E+00  0.1600E+02  0.1600E+02
    -11.444  0.0000E+00  0.0000E+00  0.1600E+02  0.1600E+02
    -11.280  0.0000E+00  0.0000E+00  0.1600E+02  0.1600E+02
    -11.116  0.0000E+00  0.0000E+00  0.1600E+02  0.1600E+02
    -10.952  0.0000E+00  0.0000E+00  0.1600E+02  0.1600E+02
    -10.788  0.0000E+00  0.0000E+00  0.1600E+02  0.1600E+02
    -10.625  0.0000E+00  0.0000E+00  0.1600E+02  0.1600E+02
    -10.461  0.0000E+00  0.0000E+00  0.1600E+02  0.1600E+02
    -10.297  0.0000E+00  0.0000E+00  0.1600E+02  0.1600E+02
    -10.133  0.0000E+00  0.0000E+00  0.1600E+02  0.1600E+02
     -9.969  0.0000E+00  0.0000E+00  0.1600E+02  0.1600E+02
     -9.806  0.0000E+00  0.0000E+00  0.1600E+02  0.1600E+02
     -9.642  0.0000E+00  0.0000E+00  0.1600E+02  0.1600E+02
     -9.478  0.0000E+00  0.0000E+00  0.1600E+02  0.1600E+02
     -9.314  0.0000E+00  0.0000E+00  0.1600E+02  0.1600E+02
     -9.150  0.0000E+00  0.0000E+00  0.1600E+02  0.1600E+02
     -8.987  0.0000E+00  0.0000E+00  0.1600E+02  0.1600E+02
     -8.823  0.0000E+00  0.0000E+00  0.1600E+02  0.1600E+02
     -8.659  0.0000E+00  0.0000E+00  0.1600E+02  0.1600E+02
     -8.495  0.0000E+00  0.0000E+00  0.1600E+02  0.1600E+02
     -8.331  0.0000E+00  0.0000E+00  0.1600E+02  0.1600E+02
     -8.168  0.0000E+00  0.0000E+00  0.1600E+02  0.1600E+02
     -8.004  0.0000E+00  0.0000E+00  0.1600E+02  0.1600E+02
     -7.840  0.0000E+00  0.0000E+00  0.1600E+02  0.1600E+02
     -7.676  0.0000E+00  0.0000E+00  0.1600E+02  0.1600E+02
     -7.513  0.0000E+00  0.0000E+00  0.1600E+02  0.1600E+02
     -7.349  0.0000E+00  0.0000E+00  0.1600E+02  0.1600E+02
     -7.185  0.0000E+00  0.0000E+00  0.1600E+02  0.1600E+02
     -7.021  0.0000E+00  0.0000E+00  0.1600E+02  0.1600E+02
     -6.857  0.0000E+00  0.0000E+00  0.1600E+02  0.1600E+02
     -6.694  0.0000E+00  0.0000E+00  0.1600E+02  0.1600E+02
     -6.530  0.0000E+00  0.0000E+00  0.1600E+02  0.1600E+02
     -6.366  0.0000E+00  0.0000E+00  0.1600E+02  0.1600E+02
     -6.202  0.0000E+00  0.0000E+00  0.1600E+02  0.1600E+02
     -6.038  0.0000E+00  0.0000E+00  0.1600E+02  0.1600E+02
     -5.875  0.0000E+00  0.0000E+00  0.1600E+02  0.1600E+02
     -5.711  0.0000E+00  0.0000E+00  0.1600E+02  0.1600E+02
     -5.547  0.0000E+00  0.0000E+00  0.1600E+02  0.1600E+02
     -5.383  0.0000E+00  0.0000E+00  0.1600E+02  0.1600E+02
     -5.219  0.0000E+00  0.0000E+00  0.1600E+02  0.1600E+02
     -5.056  0.0000E+00  0.0000E+00  0.1600E+02  0.1600E+02
     -4.892  0.0000E+00  0.0000E+00  0.1600E+02  0.1600E+02
     -4.728  0.0000E+00  0.0000E+00  0.1600E+02  0.1600E+02
     -4.564  0.0000E+00  0.0000E+00  0.1600E+02  0.1600E+02
     -4.400  0.0000E+00  0.0000E+00  0.1600E+02  0.1600E+02
     -4.237  0.0000E+00  0.0000E+00  0.1600E+02  0.1600E+02
     -4.073  0.0000E+00  0.0000E+00  0.1600E+02  0.1600E+02
     -3.909  0.0000E+00  0.0000E+00  0.1600E+02  0.1600E+02
     -3.745  0.0000E+00  0.0000E+00  0.1600E+02  0.1600E+02
     -3.581  0.0000E+00  0.0000E+00  0.1600E+02  0.1600E+02
     -3.418  0.0000E+00  0.0000E+00  0.1600E+02  0.1600E+02
     -3.254  0.0000E+00  0.0000E+00  0.1600E+02  0.1600E+02
     -3.090  0.0000E+00  0.0000E+00  0.1600E+02  0.1600E+02
     -2.926  0.0000E+00  0.0000E+00  0.1600E+02  0.1600E+02
     -2.762  0.0000E+00  0.0000E+00  0.1600E+02  0.1600E+02
     -2.599  0.0000E+00  0.0000E+00  0.1600E+02  0.1600E+02
     -2.435  0.4838E-06  0.3850E-06  0.1600E+02  0.1600E+02
     -2.271  0.2929E-04  0.2331E-04  0.1600E+02  0.1600E+02
     -2.107  0.7610E-03  0.6063E-03  0.1600E+02  0.1600E+02
     -1.943  0.1608E-01  0.1333E-01  0.1600E+02  0.1600E+02
     -1.780  0.1037E+00  0.9548E-01  0.1602E+02  0.1602E+02
     -1.616  0.2048E+00  0.1987E+00  0.1605E+02  0.1605E+02
     -1.452  0.2800E+00  0.2763E+00  0.1610E+02  0.1610E+02
     -1.288  0.3409E+00  0.3348E+00  0.1616E+02  0.1615E+02
     -1.124  0.3843E+00  0.3841E+00  0.1622E+02  0.1621E+02
     -0.961  0.4631E+00  0.4557E+00  0.1629E+02  0.1629E+02
     -0.797  0.4808E+00  0.4790E+00  0.1637E+02  0.1637E+02
     -0.633  0.5486E+00  0.5443E+00  0.1646E+02  0.1646E+02
     -0.469  0.6191E+00  0.6165E+00  0.1656E+02  0.1656E+02
     -0.305  0.6099E+00  0.6047E+00  0.1666E+02  0.1666E+02
     -0.142  0.7545E+00  0.7495E+00  0.1679E+02  0.1678E+02
      0.022  0.7178E+00  0.7176E+00  0.1691E+02  0.1690E+02
      0.186  0.8422E+00  0.8304E+00  0.1704E+02  0.1703E+02
      0.350  0.8718E+00  0.8738E+00  0.1719E+02  0.1718E+02
      0.513  0.9536E+00  0.9511E+00  0.1734E+02  0.1733E+02
      0.677  0.1026E+01  0.1015E+01  0.1751E+02  0.1750E+02
      0.841  0.1149E+01  0.1148E+01  0.1770E+02  0.1769E+02
      1.005  0.1167E+01  0.1157E+01  0.1789E+02  0.1788E+02
      1.169  0.1437E+01  0.1432E+01  0.1813E+02  0.1811E+02
      1.332  0.1481E+01  0.1478E+01  0.1837E+02  0.1836E+02
      1.496  0.1639E+01  0.1629E+01  0.1864E+02  0.1862E+02
      1.660  0.1610E+01  0.1597E+01  0.1891E+02  0.1889E+02
      1.824  0.1787E+01  0.1779E+01  0.1920E+02  0.1918E+02
      1.988  0.1725E+01  0.1710E+01  0.1948E+02  0.1946E+02
      2.151  0.2332E+01  0.2243E+01  0.1987E+02  0.1983E+02
      2.315  0.2684E+01  0.2751E+01  0.2031E+02  0.2028E+02
      2.479  0.1994E+01  0.2046E+01  0.2063E+02  0.2061E+02
      2.643  0.2568E+01  0.2547E+01  0.2105E+02  0.2103E+02
      2.807  0.4170E+01  0.4146E+01  0.2174E+02  0.2171E+02
      2.970  0.4359E+01  0.4381E+01  0.2245E+02  0.2243E+02
      3.134  0.4359E+01  0.4333E+01  0.2317E+02  0.2314E+02
      3.298  0.4683E+01  0.4679E+01  0.2394E+02  0.2391E+02
      3.462  0.4026E+01  0.4051E+01  0.2460E+02  0.2458E+02
      3.626  0.3395E+01  0.3415E+01  0.2516E+02  0.2514E+02
      3.789  0.3012E+01  0.3023E+01  0.2565E+02  0.2563E+02
      3.953  0.2701E+01  0.2712E+01  0.2610E+02  0.2608E+02
      4.117  0.2500E+01  0.2519E+01  0.2651E+02  0.2649E+02
      4.281  0.2248E+01  0.2286E+01  0.2688E+02  0.2687E+02
      4.445  0.1956E+01  0.2074E+01  0.2720E+02  0.2721E+02
      4.608  0.1910E+01  0.1843E+01  0.2751E+02  0.2751E+02
      4.772  0.1927E+01  0.1802E+01  0.2783E+02  0.2781E+02
      4.936  0.9451E+00  0.9932E+00  0.2798E+02  0.2797E+02
      5.100  0.9532E-01  0.1579E+00  0.2800E+02  0.2800E+02
      5.264  0.1871E-02  0.5619E-02  0.2800E+02  0.2800E+02
      5.427  0.0000E+00  0.0000E+00  0.2800E+02  0.2800E+02
      5.591  0.0000E+00  0.0000E+00  0.2800E+02  0.2800E+02
      5.755  0.0000E+00  0.0000E+00  0.2800E+02  0.2800E+02
      5.919  0.0000E+00  0.0000E+00  0.2800E+02  0.2800E+02
      6.083  0.0000E+00  0.0000E+00  0.2800E+02  0.2800E+02
      6.246  0.0000E+00  0.0000E+00  0.2800E+02  0.2800E+02
      6.410  0.0000E+00  0.0000E+00  0.2800E+02  0.2800E+02
      6.574  0.0000E+00  0.0000E+00  0.2800E+02  0.2800E+02
      6.738  0.0000E+00  0.0000E+00  0.2800E+02  0.2800E+02
      6.902  0.0000E+00  0.0000E+00  0.2800E+02  0.2800E+02
      7.065  0.0000E+00  0.0000E+00  0.2800E+02  0.2800E+02
      7.229  0.0000E+00  0.0000E+00  0.2800E+02  0.2800E+02
      7.22909723    -41.90956213  301      2.20459057      1.00000000
    -41.910  0.0000E+00  0.0000E+00  0.0000E+00  0.0000E+00  0.0000E+00  0.0000E+00  0.0000E+00  0.0000E+00  0.0000E+00  0.0000E+00  0.0000E+00  0.0000E+00  0.0000E+00  0.0000E+00  0.0000E+00  0.0000E+00  0.0000E+00  0.0000E+00
    -41.746  0.0000E+00  0.0000E+00  0.0000E+00  0.0000E+00  0.0000E+00  0.0000E+00  0.0000E+00  0.0000E+00  0.0000E+00  0.0000E+00  0.0000E+00  0.0000E+00  0.0000E+00  0.0000E+00  0.0000E+00  0.0000E+00  0.0000E+00  0.0000E+00
    -41.582  0.0000E+00  0.0000E+00  0.0000E+00  0.0000E+00  0.0000E+00  0.0000E+00  0.0000E+00  0.0000E+00  0.0000E+00  0.0000E+00  0.0000E+00  0.0000E+00  0.0000E+00  0.0000E+00  0.0000E+00  0.0000E+00  0.0000E+00  0.0000E+00
    -41.418  0.0000E+00  0.0000E+00  0.0000E+00  0.0000E+00  0.0000E+00  0.0000E+00  0.0000E+00  0.0000E+00  0.0000E+00  0.0000E+00  0.0000E+00  0.0000E+00  0.0000E+00  0.0000E+00  0.0000E+00  0.0000E+00  0.0000E+00  0.0000E+00
    -41.254  0.0000E+00  0.0000E+00  0.0000E+00  0.0000E+00  0.0000E+00  0.0000E+00  0.0000E+00  0.0000E+00  0.0000E+00  0.0000E+00  0.0000E+00  0.0000E+00  0.0000E+00  0.0000E+00  0.0000E+00  0.0000E+00  0.0000E+00  0.0000E+00
    -41.091  0.0000E+00  0.0000E+00  0.0000E+00  0.0000E+00  0.0000E+00  0.0000E+00  0.0000E+00  0.0000E+00  0.0000E+00  0.0000E+00  0.0000E+00  0.0000E+00  0.0000E+00  0.0000E+00  0.0000E+00  0.0000E+00  0.0000E+00  0.0000E+00
    -40.927  0.0000E+00  0.0000E+00  0.0000E+00  0.0000E+00  0.0000E+00  0.0000E+00  0.0000E+00  0.0000E+00  0.0000E+00  0.0000E+00  0.0000E+00  0.0000E+00  0.0000E+00  0.0000E+00  0.0000E+00  0.0000E+00  0.0000E+00  0.0000E+00
    -40.763  0.0000E+00  0.0000E+00  0.0000E+00  0.0000E+00  0.0000E+00  0.0000E+00  0.0000E+00  0.0000E+00  0.0000E+00  0.0000E+00  0.0000E+00  0.0000E+00  0.0000E+00  0.0000E+00  0.0000E+00  0.0000E+00  0.0000E+00  0.0000E+00
    -40.599  0.0000E+00  0.0000E+00  0.0000E+00  0.0000E+00  0.0000E+00  0.0000E+00  0.0000E+00  0.0000E+00  0.0000E+00  0.0000E+00  0.0000E+00  0.0000E+00  0.0000E+00  0.0000E+00  0.0000E+00  0.0000E+00  0.0000E+00  0.0000E+00
    -40.435  0.0000E+00  0.0000E+00  0.0000E+00  0.0000E+00  0.0000E+00  0.0000E+00  0.0000E+00  0.0000E+00  0.0000E+00  0.0000E+00  0.0000E+00  0.0000E+00  0.0000E+00  0.0000E+00  0.0000E+00  0.0000E+00  0.0000E+00  0.0000E+00
    -40.272  0.0000E+00  0.0000E+00  0.0000E+00  0.0000E+00  0.0000E+00  0.0000E+00  0.0000E+00  0.0000E+00  0.0000E+00  0.0000E+00  0.0000E+00  0.0000E+00  0.0000E+00  0.0000E+00  0.0000E+00  0.0000E+00  0.0000E+00  0.0000E+00
    -40.108  0.7500E-03  0.7191E-03  0.8680E-10  0.8329E-10  0.8680E-10  0.8329E-10  0.8680E-10  0.8329E-10  0.2937E-10  0.2822E-10  0.2937E-10  0.2822E-10  0.1375E-10  0.1324E-10  0.2937E-10  0.2822E-10  0.1375E-10  0.1324E-10
    -39.944  0.1904E-01  0.1825E-01  0.2203E-08  0.2114E-08  0.2203E-08  0.2114E-08  0.2203E-08  0.2114E-08  0.7455E-09  0.7164E-09  0.7455E-09  0.7164E-09  0.3492E-09  0.3361E-09  0.7455E-09  0.7164E-09  0.3492E-09  0.3361E-09
    -39.780  0.4631E+00  0.4455E+00  0.5332E-07  0.5136E-07  0.5332E-07  0.5136E-07  0.5332E-07  0.5136E-07  0.1815E-07  0.1750E-07  0.1815E-07  0.1750E-07  0.8539E-08  0.8246E-08  0.1815E-07  0.1750E-07  0.8539E-08  0.8246E-08
    -39.616  0.3710E+01  0.3674E+01  0.4098E-06  0.4065E-06  0.4098E-06  0.4065E-06  0.4098E-06  0.4065E-06  0.1459E-06  0.1448E-06  0.1459E-06  0.1448E-06  0.7148E-07  0.7102E-07  0.1459E-06  0.1448E-06  0.7148E-07  0.7102E-07
    -39.453  0.1732E+01  0.1782E+01  0.1812E-06  0.1867E-06  0.1812E-06  0.1867E-06  0.1812E-06  0.1867E-06  0.6800E-07  0.7012E-07  0.6800E-07  0.7012E-07  0.3515E-07  0.3628E-07  0.6800E-07  0.7012E-07  0.3515E-07  0.3628E-07
    -39.289  0.9420E-01  0.9818E-01  0.9679E-08  0.1010E-07  0.9679E-08  0.1010E-07  0.9679E-08  0.1010E-07  0.3692E-08  0.3856E-08  0.3692E-08  0.3856E-08  0.1944E-08  0.2033E-08  0.3692E-08  0.3856E-08  0.1944E-08  0.2033E-08
    -39.125  0.0000E+00  0.0000E+00  0.0000E+00  0.0000E+00  0.0000E+00  0.0000E+00  0.0000E+00  0.0000E+00  0.0000E+00  0.0000E+00  0.0000E+00  0.0000E+00  0.0000E+00  0.0000E+00  0.0000E+00  0.0000E+00  0.0000E+00  0.0000E+00
    -38.961  0.0000E+00  0.0000E+00  0.0000E+00  0.0000E+00  0.0000E+00  0.0000E+00  0.0000E+00  0.0000E+00  0.0000E+00  0.0000E+00  0.0000E+00  0.0000E+00  0.0000E+00  0.0000E+00  0.0000E+00  0.0000E+00  0.0000E+00  0.0000E+00
    -38.797  0.0000E+00  0.0000E+00  0.0000E+00  0.0000E+00  0.0000E+00  0.0000E+00  0.0000E+00  0.0000E+00  0.0000E+00  0.0000E+00  0.0000E+00  0.0000E+00  0.0000E+00  0.0000E+00  0.0000E+00  0.0000E+00  0.0000E+00  0.0000E+00
    -38.634  0.0000E+00  0.0000E+00  0.0000E+00  0.0000E+00  0.0000E+00  0.0000E+00  0.0000E+00  0.0000E+00  0.0000E+00  0.0000E+00  0.0000E+00  0.0000E+00  0.0000E+00  0.0000E+00  0.0000E+00  0.0000E+00  0.0000E+00  0.0000E+00
    -38.470  0.0000E+00  0.0000E+00  0.0000E+00  0.0000E+00  0.0000E+00  0.0000E+00  0.0000E+00  0.0000E+00  0.0000E+00  0.0000E+00  0.0000E+00  0.0000E+00  0.0000E+00  0.0000E+00  0.0000E+00  0.0000E+00  0.0000E+00  0.0000E+00
    -38.306  0.0000E+00  0.0000E+00  0.0000E+00  0.0000E+00  0.0000E+00  0.0000E+00  0.0000E+00  0.0000E+00  0.0000E+00  0.0000E+00  0.0000E+00  0.0000E+00  0.0000E+00  0.0000E+00  0.0000E+00  0.0000E+00  0.0000E+00  0.0000E+00
    -38.142  0.0000E+00  0.0000E+00  0.0000E+00  0.0000E+00  0.0000E+00  0.0000E+00  0.0000E+00  0.0000E+00  0.0000E+00  0.0000E+00  0.0000E+00  0.0000E+00  0.0000E+00  0.0000E+00  0.0000E+00  0.0000E+00  0.0000E+00  0.0000E+00
    -37.978  0.0000E+00  0.0000E+00  0.0000E+00  0.0000E+00  0.0000E+00  0.0000E+00  0.0000E+00  0.0000E+00  0.0000E+00  0.0000E+00  0.0000E+00  0.0000E+00  0.0000E+00  0.0000E+00  0.0000E+00  0.0000E+00  0.0000E+00  0.0000E+00
    -37.815  0.0000E+00  0.0000E+00  0.0000E+00  0.0000E+00  0.0000E+00  0.0000E+00  0.0000E+00  0.0000E+00  0.0000E+00  0.0000E+00  0.0000E+00  0.0000E+00  0.0000E+00  0.0000E+00  0.0000E+00  0.0000E+00  0.0000E+00  0.0000E+00
    -37.651  0.0000E+00  0.0000E+00  0.0000E+00  0.0000E+00  0.0000E+00  0.0000E+00  0.0000E+00  0.0000E+00  0.0000E+00  0.0000E+00  0.0000E+00  0.0000E+00  0.0000E+00  0.0000E+00  0.0000E+00  0.0000E+00  0.0000E+00  0.0000E+00
    -37.487  0.0000E+00  0.0000E+00  0.0000E+00  0.0000E+00  0.0000E+00  0.0000E+00  0.0000E+00  0.0000E+00  0.0000E+00  0.0000E+00  0.0000E+00  0.0000E+00  0.0000E+00  0.0000E+00  0.0000E+00  0.0000E+00  0.0000E+00  0.0000E+00
    -37.323  0.0000E+00  0.0000E+00  0.0000E+00  0.0000E+00  0.0000E+00  0.0000E+00  0.0000E+00  0.0000E+00  0.0000E+00  0.0000E+00  0.0000E+00  0.0000E+00  0.0000E+00  0.0000E+00  0.0000E+00  0.0000E+00  0.0000E+00  0.0000E+00
    -37.159  0.0000E+00  0.0000E+00  0.0000E+00  0.0000E+00  0.0000E+00  0.0000E+00  0.0000E+00  0.0000E+00  0.0000E+00  0.0000E+00  0.0000E+00  0.0000E+00  0.0000E+00  0.0000E+00  0.0000E+00  0.0000E+00  0.0000E+00  0.0000E+00
    -36.996  0.0000E+00  0.0000E+00  0.0000E+00  0.0000E+00  0.0000E+00  0.0000E+00  0.0000E+00  0.0000E+00  0.0000E+00  0.0000E+00  0.0000E+00  0.0000E+00  0.0000E+00  0.0000E+00  0.0000E+00  0.0000E+00  0.0000E+00  0.0000E+00
    -36.832  0.0000E+00  0.0000E+00  0.0000E+00  0.0000E+00  0.0000E+00  0.0000E+00  0.0000E+00  0.0000E+00  0.0000E+00  0.0000E+00  0.0000E+00  0.0000E+00  0.0000E+00  0.0000E+00  0.0000E+00  0.0000E+00  0.0000E+00  0.0000E+00
    -36.668  0.0000E+00  0.0000E+00  0.0000E+00  0.0000E+00  0.0000E+00  0.0000E+00  0.0000E+00  0.0000E+00  0.0000E+00  0.0000E+00  0.0000E+00  0.0000E+00  0.0000E+00  0.0000E+00  0.0000E+00  0.0000E+00  0.0000E+00  0.0000E+00
    -36.504  0.0000E+00  0.0000E+00  0.0000E+00  0.0000E+00  0.0000E+00  0.0000E+00  0.0000E+00  0.0000E+00  0.0000E+00  0.0000E+00  0.0000E+00  0.0000E+00  0.0000E+00  0.0000E+00  0.0000E+00  0.0000E+00  0.0000E+00  0.0000E+00
    -36.341  0.0000E+00  0.0000E+00  0.0000E+00  0.0000E+00  0.0000E+00  0.0000E+00  0.0000E+00  0.0000E+00  0.0000E+00  0.0000E+00  0.0000E+00  0.0000E+00  0.0000E+00  0.0000E+00  0.0000E+00  0.0000E+00  0.0000E+00  0.0000E+00
    -36.177  0.0000E+00  0.0000E+00  0.0000E+00  0.0000E+00  0.0000E+00  0.0000E+00  0.0000E+00  0.0000E+00  0.0000E+00  0.0000E+00  0.0000E+00  0.0000E+00  0.0000E+00  0.0000E+00  0.0000E+00  0.0000E+00  0.0000E+00  0.0000E+00
    -36.013  0.0000E+00  0.0000E+00  0.0000E+00  0.0000E+00  0.0000E+00  0.0000E+00  0.0000E+00  0.0000E+00  0.0000E+00  0.0000E+00  0.0000E+00  0.0000E+00  0.0000E+00  0.0000E+00  0.0000E+00  0.0000E+00  0.0000E+00  0.0000E+00
    -35.849  0.0000E+00  0.0000E+00  0.0000E+00  0.0000E+00  0.0000E+00  0.0000E+00  0.0000E+00  0.0000E+00  0.0000E+00  0.0000E+00  0.0000E+00  0.0000E+00  0.0000E+00  0.0000E+00  0.0000E+00  0.0000E+00  0.0000E+00  0.0000E+00
    -35.685  0.0000E+00  0.0000E+00  0.0000E+00  0.0000E+00  0.0000E+00  0.0000E+00  0.0000E+00  0.0000E+00  0.0000E+00  0.0000E+00  0.0000E+00  0.0000E+00  0.0000E+00  0.0000E+00  0.0000E+00  0.0000E+00  0.0000E+00  0.0000E+00
    -35.522  0.0000E+00  0.0000E+00  0.0000E+00  0.0000E+00  0.0000E+00  0.0000E+00  0.0000E+00  0.0000E+00  0.0000E+00  0.0000E+00  0.0000E+00  0.0000E+00  0.0000E+00  0.0000E+00  0.0000E+00  0.0000E+00  0.0000E+00  0.0000E+00
    -35.358  0.0000E+00  0.0000E+00  0.0000E+00  0.0000E+00  0.0000E+00  0.0000E+00  0.0000E+00  0.0000E+00  0.0000E+00  0.0000E+00  0.0000E+00  0.0000E+00  0.0000E+00  0.0000E+00  0.0000E+00  0.0000E+00  0.0000E+00  0.0000E+00
    -35.194  0.0000E+00  0.0000E+00  0.0000E+00  0.0000E+00  0.0000E+00  0.0000E+00  0.0000E+00  0.0000E+00  0.0000E+00  0.0000E+00  0.0000E+00  0.0000E+00  0.0000E+00  0.0000E+00  0.0000E+00  0.0000E+00  0.0000E+00  0.0000E+00
    -35.030  0.0000E+00  0.0000E+00  0.0000E+00  0.0000E+00  0.0000E+00  0.0000E+00  0.0000E+00  0.0000E+00  0.0000E+00  0.0000E+00  0.0000E+00  0.0000E+00  0.0000E+00  0.0000E+00  0.0000E+00  0.0000E+00  0.0000E+00  0.0000E+00
    -34.866  0.0000E+00  0.0000E+00  0.0000E+00  0.0000E+00  0.0000E+00  0.0000E+00  0.0000E+00  0.0000E+00  0.0000E+00  0.0000E+00  0.0000E+00  0.0000E+00  0.0000E+00  0.0000E+00  0.0000E+00  0.0000E+00  0.0000E+00  0.0000E+00
    -34.703  0.0000E+00  0.0000E+00  0.0000E+00  0.0000E+00  0.0000E+00  0.0000E+00  0.0000E+00  0.0000E+00  0.0000E+00  0.0000E+00  0.0000E+00  0.0000E+00  0.0000E+00  0.0000E+00  0.0000E+00  0.0000E+00  0.0000E+00  0.0000E+00
    -34.539  0.0000E+00  0.0000E+00  0.0000E+00  0.0000E+00  0.0000E+00  0.0000E+00  0.0000E+00  0.0000E+00  0.0000E+00  0.0000E+00  0.0000E+00  0.0000E+00  0.0000E+00  0.0000E+00  0.0000E+00  0.0000E+00  0.0000E+00  0.0000E+00
    -34.375  0.0000E+00  0.0000E+00  0.0000E+00  0.0000E+00  0.0000E+00  0.0000E+00  0.0000E+00  0.0000E+00  0.0000E+00  0.0000E+00  0.0000E+00  0.0000E+00  0.0000E+00  0.0000E+00  0.0000E+00  0.0000E+00  0.0000E+00  0.0000E+00
    -34.211  0.0000E+00  0.0000E+00  0.0000E+00  0.0000E+00  0.0000E+00  0.0000E+00  0.0000E+00  0.0000E+00  0.0000E+00  0.0000E+00  0.0000E+00  0.0000E+00  0.0000E+00  0.0000E+00  0.0000E+00  0.0000E+00  0.0000E+00  0.0000E+00
    -34.047  0.0000E+00  0.0000E+00  0.0000E+00  0.0000E+00  0.0000E+00  0.0000E+00  0.0000E+00  0.0000E+00  0.0000E+00  0.0000E+00  0.0000E+00  0.0000E+00  0.0000E+00  0.0000E+00  0.0000E+00  0.0000E+00  0.0000E+00  0.0000E+00
    -33.884  0.0000E+00  0.0000E+00  0.0000E+00  0.0000E+00  0.0000E+00  0.0000E+00  0.0000E+00  0.0000E+00  0.0000E+00  0.0000E+00  0.0000E+00  0.0000E+00  0.0000E+00  0.0000E+00  0.0000E+00  0.0000E+00  0.0000E+00  0.0000E+00
    -33.720  0.0000E+00  0.0000E+00  0.0000E+00  0.0000E+00  0.0000E+00  0.0000E+00  0.0000E+00  0.0000E+00  0.0000E+00  0.0000E+00  0.0000E+00  0.0000E+00  0.0000E+00  0.0000E+00  0.0000E+00  0.0000E+00  0.0000E+00  0.0000E+00