   4   4   1   0
  0.4888456E+02  0.5804220E-09  0.5804220E-09  0.5804220E-09  0.5000000E-15
  1.000000000000000E-004
  CAR 
 unknown system                          
      6.10357198    -43.19383255  301      1.41235579      1.00000000
    -43.194  0.0000E+00  0.0000E+00  0.0000E+00  0.0000E+00
    -43.030  0.0000E+00  0.0000E+00  0.0000E+00  0.0000E+00
    -42.865  0.0000E+00  0.0000E+00  0.0000E+00  0.0000E+00
    -42.701  0.0000E+00  0.0000E+00  0.0000E+00  0.0000E+00
    -42.537  0.0000E+00  0.0000E+00  0.0000E+00  0.0000E+00
    -42.372  0.0000E+00  0.0000E+00  0.0000E+00  0.0000E+00
    -42.208  0.0000E+00  0.0000E+00  0.0000E+00  0.0000E+00
    -42.044  0.0000E+00  0.0000E+00  0.0000E+00  0.0000E+00
    -41.879  0.0000E+00  0.0000E+00  0.0000E+00  0.0000E+00
    -41.715  0.0000E+00  0.0000E+00  0.0000E+00  0.0000E+00
    -41.551  0.0000E+00  0.0000E+00  0.0000E+00  0.0000E+00
    -41.386  0.3685E-02  0.3663E-02  0.6055E-03  0.6019E-03
    -41.222  0.9450E-01  0.9393E-01  0.1613E-01  0.1604E-01
    -41.058  0.2281E+01  0.2268E+01  0.3909E+00  0.3888E+00
    -40.893  0.1571E+02  0.1570E+02  0.2973E+01  0.2968E+01
    -40.729  0.5940E+01  0.5966E+01  0.3949E+01  0.3949E+01
    -40.565  0.2987E+00  0.3005E+00  0.3998E+01  0.3998E+01
    -40.400  0.0000E+00  0.0000E+00  0.4000E+01  0.4000E+01
    -40.236  0.0000E+00  0.0000E+00  0.4000E+01  0.4000E+01
    -40.072  0.0000E+00  0.0000E+00  0.4000E+01  0.4000E+01
    -39.907  0.0000E+00  0.0000E+00  0.4000E+01  0.4000E+01
    -39.743  0.0000E+00  0.0000E+00  0.4000E+01  0.4000E+01
    -39.579  0.0000E+00  0.0000E+00  0.4000E+01  0.4000E+01
    -39.414  0.0000E+00  0.0000E+00  0.4000E+01  0.4000E+01
    -39.250  0.0000E+00  0.0000E+00  0.4000E+01  0.4000E+01
    -39.086  0.0000E+00  0.0000E+00  0.4000E+01  0.4000E+01
    -38.921  0.0000E+00  0.0000E+00  0.4000E+01  0.4000E+01
    -38.757  0.0000E+00  0.0000E+00  0.4000E+01  0.4000E+01
    -38.593  0.0000E+00  0.0000E+00  0.4000E+01  0.4000E+01
    -38.428  0.0000E+00  0.0000E+00  0.4000E+01  0.4000E+01
    -38.264  0.0000E+00  0.0000E+00  0.4000E+01  0.4000E+01
    -38.100  0.0000E+00  0.0000E+00  0.4000E+01  0.4000E+01
    -37.935  0.0000E+00  0.0000E+00  0.4000E+01  0.4000E+01
    -37.771  0.0000E+00  0.0000E+00  0.4000E+01  0.4000E+01
    -37.607  0.0000E+00  0.0000E+00  0.4000E+01  0.4000E+01
    -37.442  0.0000E+00  0.0000E+00  0.4000E+01  0.4000E+01
    -37.278  0.0000E+00  0.0000E+00  0.4000E+01  0.4000E+01
    -37.114  0.0000E+00  0.0000E+00  0.4000E+01  0.4000E+01
    -36.949  0.0000E+00  0.0000E+00  0.4000E+01  0.4000E+01
    -36.785  0.0000E+00  0.0000E+00  0.4000E+01  0.4000E+01
    -36.621  0.0000E+00  0.0000E+00  0.4000E+01  0.4000E+01
    -36.457  0.0000E+00  0.0000E+00  0.4000E+01  0.4000E+01
    -36.292  0.0000E+00  0.0000E+00  0.4000E+01  0.4000E+01
    -36.128  0.0000E+00  0.0000E+00  0.4000E+01  0.4000E+01
    -35.964  0.0000E+00  0.0000E+00  0.4000E+01  0.4000E+01
    -35.799  0.0000E+00  0.0000E+00  0.4000E+01  0.4000E+01
    -35.635  0.0000E+00  0.0000E+00  0.4000E+01  0.4000E+01
    -35.471  0.0000E+00  0.0000E+00  0.4000E+01  0.4000E+01
    -35.306  0.0000E+00  0.0000E+00  0.4000E+01  0.4000E+01
    -35.142  0.0000E+00  0.0000E+00  0.4000E+01  0.4000E+01
    -34.978  0.0000E+00  0.0000E+00  0.4000E+01  0.4000E+01
    -34.813  0.0000E+00  0.0000E+00  0.4000E+01  0.4000E+01
    -34.649  0.0000E+00  0.0000E+00  0.4000E+01  0.4000E+01
    -34.485  0.0000E+00  0.0000E+00  0.4000E+01  0.4000E+01
    -34.320  0.0000E+00  0.0000E+00  0.4000E+01  0.4000E+01
    -34.156  0.0000E+00  0.0000E+00  0.4000E+01  0.4000E+01
    -33.992  0.0000E+00  0.0000E+00  0.4000E+01  0.4000E+01
    -33.827  0.0000E+00  0.0000E+00  0.4000E+01  0.4000E+01
    -33.663  0.0000E+00  0.0000E+00  0.4000E+01  0.4000E+01
    -33.499  0.0000E+00  0.0000E+00  0.4000E+01  0.4000E+01
    -33.334  0.0000E+00  0.0000E+00  0.4000E+01  0.4000E+01
    -33.170  0.0000E+00  0.0000E+00  0.4000E+01  0.4000E+01
    -33.006  0.0000E+00  0.0000E+00  0.4000E+01  0.4000E+01
    -32.841  0.0000E+00  0.0000E+00  0.4000E+01  0.4000E+01
    -32.677  0.0000E+00  0.0000E+00  0.4000E+01  0.4000E+01
    -32.513  0.0000E+00  0.0000E+00  0.4000E+01  0.4000E+01
    -32.348  0.0000E+00  0.0000E+00  0.4000E+01  0.4000E+01
    -32.184  0.0000E+00  0.0000E+00  0.4000E+01  0.4000E+01
    -32.020  0.0000E+00  0.0000E+00  0.4000E+01  0.4000E+01
    -31.855  0.0000E+00  0.0000E+00  0.4000E+01  0.4000E+01
    -31.691  0.0000E+00  0.0000E+00  0.4000E+01  0.4000E+01
    -31.527  0.0000E+00  0.0000E+00  0.4000E+01  0.4000E+01
    -31.362  0.0000E+00  0.0000E+00  0.4000E+01  0.4000E+01
    -31.198  0.0000E+00  0.0000E+00  0.4000E+01  0.4000E+01
    -31.034  0.0000E+00  0.0000E+00  0.4000E+01  0.4000E+01
    -30.869  0.0000E+00  0.0000E+00  0.4000E+01  0.4000E+01
    -30.705  0.0000E+00  0.0000E+00  0.4000E+01  0.4000E+01
    -30.541  0.0000E+00  0.0000E+00  0.4000E+01  0.4000E+01
    -30.377  0.0000E+00  0.0000E+00  0.4000E+01  0.4000E+01
    -30.212  0.0000E+00  0.0000E+00  0.4000E+01  0.4000E+01
    -30.048  0.0000E+00  0.0000E+00  0.4000E+01  0.4000E+01
    -29.884  0.0000E+00  0.0000E+00  0.4000E+01  0.4000E+01
    -29.719  0.0000E+00  0.0000E+00  0.4000E+01  0.4000E+01
    -29.555  0.0000E+00  0.0000E+00  0.4000E+01  0.4000E+01
    -29.391  0.0000E+00  0.0000E+00  0.4000E+01  0.4000E+01
    -29.226  0.0000E+00  0.0000E+00  0.4000E+01  0.4000E+01
    -29.062  0.0000E+00  0.0000E+00  0.4000E+01  0.4000E+01
    -28.898  0.0000E+00  0.0000E+00  0.4000E+01  0.4000E+01
    -28.733  0.0000E+00  0.0000E+00  0.4000E+01  0.4000E+01
    -28.569  0.0000E+00  0.0000E+00  0.4000E+01  0.4000E+01
    -28.405  0.0000E+00  0.0000E+00  0.4000E+01  0.4000E+01
    -28.240  0.0000E+00  0.0000E+00  0.4000E+01  0.4000E+01
    -28.076  0.0000E+00  0.0000E+00  0.4000E+01  0.4000E+01
    -27.912  0.0000E+00  0.0000E+00  0.4000E+01  0.4000E+01
    -27.747  0.0000E+00  0.0000E+00  0.4000E+01  0.4000E+01
    -27.583  0.0000E+00  0.0000E+00  0.4000E+01  0.4000E+01
    -27.419  0.0000E+00  0.0000E+00  0.4000E+01  0.4000E+01
    -27.254  0.0000E+00  0.0000E+00  0.4000E+01  0.4000E+01
    -27.090  0.0000E+00  0.0000E+00  0.4000E+01  0.4000E+01
    -26.926  0.0000E+00  0.0000E+00  0.4000E+01  0.4000E+01
    -26.761  0.0000E+00  0.0000E+00  0.4000E+01  0.4000E+01
    -26.597  0.0000E+00  0.0000E+00  0.4000E+01  0.4000E+01
    -26.433  0.0000E+00  0.0000E+00  0.4000E+01  0.4000E+01
    -26.268  0.0000E+00  0.0000E+00  0.4000E+01  0.4000E+01
    -26.104  0.0000E+00  0.0000E+00  0.4000E+01  0.4000E+01
    -25.940  0.0000E+00  0.0000E+00  0.4000E+01  0.4000E+01
    -25.775  0.0000E+00  0.0000E+00  0.4000E+01  0.4000E+01
    -25.611  0.0000E+00  0.0000E+00  0.4000E+01  0.4000E+01
    -25.447  0.0000E+00  0.0000E+00  0.4000E+01  0.4000E+01
    -25.282  0.0000E+00  0.0000E+00  0.4000E+01  0.4000E+01
    -25.118  0.0000E+00  0.0000E+00  0.4000E+01  0.4000E+01
    -24.954  0.0000E+00  0.0000E+00  0.4000E+01  0.4000E+01
    -24.789  0.0000E+00  0.0000E+00  0.4000E+01  0.4000E+01
    -24.625  0.0000E+00  0.0000E+00  0.4000E+01  0.4000E+01
    -24.461  0.0000E+00  0.0000E+00  0.4000E+01  0.4000E+01
    -24.296  0.0000E+00  0.0000E+00  0.4000E+01  0.4000E+01
    -24.132  0.0000E+00  0.0000E+00  0.4000E+01  0.4000E+01
    -23.968  0.0000E+00  0.0000E+00  0.4000E+01  0.4000E+01
    -23.804  0.0000E+00  0.0000E+00  0.4000E+01  0.4000E+01
    -23.639  0.0000E+00  0.0000E+00  0.4000E+01  0.4000E+01
    -23.475  0.0000E+00  0.0000E+00  0.4000E+01  0.4000E+01
    -23.311  0.0000E+00  0.0000E+00  0.4000E+01  0.4000E+01
    -23.146  0.0000E+00  0.0000E+00  0.4000E+01  0.4000E+01
    -22.982  0.0000E+00  0.0000E+00  0.4000E+01  0.4000E+01
    -22.818  0.0000E+00  0.0000E+00  0.4000E+01  0.4000E+01
    -22.653  0.0000E+00  0.0000E+00  0.4000E+01  0.4000E+01
    -22.489  0.4262E-03  0.4194E-03  0.4000E+01  0.4000E+01
    -22.325  0.2184E-01  0.2171E-01  0.4004E+01  0.4004E+01
    -22.160  0.5678E+00  0.5644E+00  0.4097E+01  0.4096E+01
    -21.996  0.1214E+02  0.1208E+02  0.6091E+01  0.6081E+01
    -21.832  0.4822E+02  0.4823E+02  0.1402E+02  0.1401E+02
    -21.667  0.1153E+02  0.1158E+02  0.1591E+02  0.1591E+02
    -21.503  0.2678E+00  0.2728E+00  0.1600E+02  0.1600E+02
    -21.339  0.0000E+00  0.0000E+00  0.1600E+02  0.1600E+02
    -21.174  0.0000E+00  0.0000E+00  0.1600E+02  0.1600E+02
    -21.010  0.0000E+00  0.0000E+00  0.1600E+02  0.1600E+02
    -20.846  0.0000E+00  0.0000E+00  0.1600E+02  0.1600E+02
    -20.681  0.0000E+00  0.0000E+00  0.1600E+02  0.1600E+02
    -20.517  0.0000E+00  0.0000E+00  0.1600E+02  0.1600E+02
    -20.353  0.0000E+00  0.0000E+00  0.1600E+02  0.1600E+02
    -20.188  0.0000E+00  0.0000E+00  0.1600E+02  0.1600E+02
    -20.024  0.0000E+00  0.0000E+00  0.1600E+02  0.1600E+02
    -19.860  0.0000E+00  0.0000E+00  0.1600E+02  0.1600E+02
    -19.695  0.0000E+00  0.0000E+00  0.1600E+02  0.1600E+02
    -19.531  0.0000E+00  0.0000E+00  0.1600E+02  0.1600E+02
    -19.367  0.0000E+00  0.0000E+00  0.1600E+02  0.1600E+02
    -19.202  0.0000E+00  0.0000E+00  0.1600E+02  0.1600E+02
    -19.038  0.0000E+00  0.0000E+00  0.1600E+02  0.1600E+02
    -18.874  0.0000E+00  0.0000E+00  0.1600E+02  0.1600E+02
    -18.709  0.0000E+00  0.0000E+00  0.1600E+02  0.1600E+02
    -18.545  0.0000E+00  0.0000E+00  0.1600E+02  0.1600E+02
    -18.381  0.0000E+00  0.0000E+00  0.1600E+02  0.1600E+02
    -18.216  0.0000E+00  0.0000E+00  0.1600E+02  0.1600E+02
    -18.052  0.0000E+00  0.0000E+00  0.1600E+02  0.1600E+02
    -17.888  0.0000E+00  0.0000E+00  0.1600E+02  0.1600E+02
    -17.724  0.0000E+00  0.0000E+00  0.1600E+02  0.1600E+02
    -17.559  0.0000E+00  0.0000E+00  0.1600E+02  0.1600E+02
    -17.395  0.0000E+00  0.0000E+00  0.1600E+02  0.1600E+02
    -17.231  0.0000E+00  0.0000E+00  0.1600E+02  0.1600E+02
    -17.066  0.0000E+00  0.0000E+00  0.1600E+02  0.1600E+02
    -16.902  0.0000E+00  0.0000E+00  0.1600E+02  0.1600E+02
    -16.738  0.0000E+00  0.0000E+00  0.1600E+02  0.1600E+02
    -16.573  0.0000E+00  0.0000E+00  0.1600E+02  0.1600E+02
    -16.409  0.0000E+00  0.0000E+00  0.1600E+02  0.1600E+02
    -16.245  0.0000E+00  0.0000E+00  0.1600E+02  0.1600E+02
    -16.080  0.0000E+00  0.0000E+00  0.1600E+02  0.1600E+02
    -15.916  0.0000E+00  0.0000E+00  0.1600E+02  0.1600E+02
    -15.752  0.0000E+00  0.0000E+00  0.1600E+02  0.1600E+02
    -15.587  0.0000E+00  0.0000E+00  0.1600E+02  0.1600E+02
    -15.423  0.0000E+00  0.0000E+00  0.1600E+02  0.1600E+02
    -15.259  0.0000E+00  0.0000E+00  0.1600E+02  0.1600E+02
    -15.094  0.0000E+00  0.0000E+00  0.1600E+02  0.1600E+02
    -14.930  0.0000E+00  0.0000E+00  0.1600E+02  0.1600E+02
    -14.766  0.0000E+00  0.0000E+00  0.1600E+02  0.1600E+02
    -14.601  0.0000E+00  0.0000E+00  0.1600E+02  0.1600E+02
    -14.437  0.0000E+00  0.0000E+00  0.1600E+02  0.1600E+02
    -14.273  0.0000E+00  0.0000E+00  0.1600E+02  0.1600E+02
    -14.108  0.0000E+00  0.0000E+00  0.1600E+02  0.1600E+02
    -13.944  0.0000E+00  0.0000E+00  0.1600E+02  0.1600E+02
    -13.780  0.0000E+00  0.0000E+00  0.1600E+02  0.1600E+02
    -13.615  0.0000E+00  0.0000E+00  0.1600E+02  0.1600E+02
    -13.451  0.0000E+00  0.0000E+00  0.1600E+02  0.1600E+02
    -13.287  0.0000E+00  0.0000E+00  0.1600E+02  0.1600E+02
    -13.122  0.0000E+00  0.0000E+00  0.1600E+02  0.1600E+02
    -12.958  0.0000E+00  0.0000E+00  0.1600E+02  0.1600E+02
    -12.794  0.0000E+00  0.0000E+00  0.1600E+02  0.1600E+02
    -12.629  0.0000E+00  0.0000E+00  0.1600E+02  0.1600E+02
    -12.465  0.0000E+00  0.0000E+00  0.1600E+02  0.1600E+02
    -12.301  0.0000E+00  0.0000E+00  0.1600E+02  0.1600E+02
    -12.136  0.0000E+00  0.0000E+00  0.1600E+02  0.1600E+02
    -11.972  0.0000E+00  0.0000E+00  0.1600E+02  0.1600E+02
    -11.808  0.0000E+00  0.0000E+00  0.1600E+02  0.1600E+02
    -11.643  0.0000E+00  0.0000E+00  0.1600E+02  0.1600E+02
    -11.479  0.0000E+00  0.0000E+00  0.1600E+02  0.1600E+02
    -11.315  0.0000E+00  0.0000E+00  0.1600E+02  0.1600E+02
    -11.151  0.0000E+00  0.0000E+00  0.1600E+02  0.1600E+02
    -10.986  0.0000E+00  0.0000E+00  0.1600E+02  0.1600E+02
    -10.822  0.0000E+00  0.0000E+00  0.1600E+02  0.1600E+02
    -10.658  0.0000E+00  0.0000E+00  0.1600E+02  0.1600E+02
    -10.493  0.0000E+00  0.0000E+00  0.1600E+02  0.1600E+02
    -10.329  0.0000E+00  0.0000E+00  0.1600E+02  0.1600E+02
    -10.165  0.0000E+00  0.0000E+00  0.1600E+02  0.1600E+02
    -10.000  0.0000E+00  0.0000E+00  0.1600E+02  0.1600E+02
     -9.836  0.0000E+00  0.0000E+00  0.1600E+02  0.1600E+02
     -9.672  0.0000E+00  0.0000E+00  0.1600E+02  0.1600E+02
     -9.507  0.0000E+00  0.0000E+00  0.1600E+02  0.1600E+02
     -9.343  0.0000E+00  0.0000E+00  0.1600E+02  0.1600E+02
     -9.179  0.0000E+00  0.0000E+00  0.1600E+02  0.1600E+02
     -9.014  0.0000E+00  0.0000E+00  0.1600E+02  0.1600E+02
     -8.850  0.0000E+00  0.0000E+00  0.1600E+02  0.1600E+02
     -8.686  0.0000E+00  0.0000E+00  0.1600E+02  0.1600E+02
     -8.521  0.0000E+00  0.0000E+00  0.1600E+02  0.1600E+02
     -8.357  0.0000E+00  0.0000E+00  0.1600E+02  0.1600E+02
     -8.193  0.0000E+00  0.0000E+00  0.1600E+02  0.1600E+02
     -8.028  0.0000E+00  0.0000E+00  0.1600E+02  0.1600E+02
     -7.864  0.0000E+00  0.0000E+00  0.1600E+02  0.1600E+02
     -7.700  0.0000E+00  0.0000E+00  0.1600E+02  0.1600E+02
     -7.535  0.0000E+00  0.0000E+00  0.1600E+02  0.1600E+02
     -7.371  0.0000E+00  0.0000E+00  0.1600E+02  0.1600E+02
     -7.207  0.0000E+00  0.0000E+00  0.1600E+02  0.1600E+02
     -7.042  0.0000E+00  0.0000E+00  0.1600E+02  0.1600E+02
     -6.878  0.0000E+00  0.0000E+00  0.1600E+02  0.1600E+02
     -6.714  0.0000E+00  0.0000E+00  0.1600E+02  0.1600E+02
     -6.549  0.0000E+00  0.0000E+00  0.1600E+02  0.1600E+02
     -6.385  0.0000E+00  0.0000E+00  0.1600E+02  0.1600E+02
     -6.221  0.0000E+00  0.0000E+00  0.1600E+02  0.1600E+02
     -6.056  0.0000E+00  0.0000E+00  0.1600E+02  0.1600E+02
     -5.892  0.0000E+00  0.0000E+00  0.1600E+02  0.1600E+02
     -5.728  0.0000E+00  0.0000E+00  0.1600E+02  0.1600E+02
     -5.563  0.0000E+00  0.0000E+00  0.1600E+02  0.1600E+02
     -5.399  0.0000E+00  0.0000E+00  0.1600E+02  0.1600E+02
     -5.235  0.0000E+00  0.0000E+00  0.1600E+02  0.1600E+02
     -5.071  0.0000E+00  0.0000E+00  0.1600E+02  0.1600E+02
     -4.906  0.0000E+00  0.0000E+00  0.1600E+02  0.1600E+02
     -4.742  0.0000E+00  0.0000E+00  0.1600E+02  0.1600E+02
     -4.578  0.0000E+00  0.0000E+00  0.1600E+02  0.1600E+02
     -4.413  0.0000E+00  0.0000E+00  0.1600E+02  0.1600E+02
     -4.249  0.0000E+00  0.0000E+00  0.1600E+02  0.1600E+02
     -4.085  0.0000E+00  0.0000E+00  0.1600E+02  0.1600E+02
     -3.920  0.0000E+00  0.0000E+00  0.1600E+02  0.1600E+02
     -3.756  0.0000E+00  0.0000E+00  0.1600E+02  0.1600E+02
     -3.592  0.0000E+00  0.0000E+00  0.1600E+02  0.1600E+02
     -3.427  0.0000E+00  0.0000E+00  0.1600E+02  0.1600E+02
     -3.263  0.0000E+00  0.0000E+00  0.1600E+02  0.1600E+02
     -3.099  0.0000E+00  0.0000E+00  0.1600E+02  0.1600E+02
     -2.934  0.0000E+00  0.0000E+00  0.1600E+02  0.1600E+02
     -2.770  0.6216E-05  0.5904E-05  0.1600E+02  0.1600E+02
     -2.606  0.1969E-03  0.1870E-03  0.1600E+02  0.1600E+02
     -2.441  0.4980E-02  0.4743E-02  0.1600E+02  0.1600E+02
     -2.277  0.6568E-01  0.6381E-01  0.1601E+02  0.1601E+02
     -2.113  0.2073E+00  0.2053E+00  0.1605E+02  0.1605E+02
     -1.948  0.3180E+00  0.3167E+00  0.1610E+02  0.1610E+02
     -1.784  0.4034E+00  0.4019E+00  0.1616E+02  0.1616E+02
     -1.620  0.4615E+00  0.4604E+00  0.1624E+02  0.1624E+02
     -1.455  0.5522E+00  0.5516E+00  0.1633E+02  0.1633E+02
     -1.291  0.5944E+00  0.5929E+00  0.1643E+02  0.1643E+02
     -1.127  0.6849E+00  0.6838E+00  0.1654E+02  0.1654E+02
     -0.962  0.6959E+00  0.6951E+00  0.1666E+02  0.1665E+02
     -0.798  0.8350E+00  0.8339E+00  0.1679E+02  0.1679E+02
     -0.634  0.8204E+00  0.8197E+00  0.1693E+02  0.1693E+02
     -0.469  0.9533E+00  0.9515E+00  0.1709E+02  0.1708E+02
     -0.305  0.9957E+00  0.9945E+00  0.1725E+02  0.1725E+02
     -0.141  0.1040E+01  0.1039E+01  0.1742E+02  0.1742E+02
      0.024  0.1206E+01  0.1204E+01  0.1762E+02  0.1762E+02
      0.188  0.1204E+01  0.1205E+01  0.1782E+02  0.1781E+02
      0.352  0.1411E+01  0.1408E+01  0.1805E+02  0.1805E+02
      0.517  0.1520E+01  0.1520E+01  0.1830E+02  0.1830E+02
      0.681  0.1632E+01  0.1630E+01  0.1857E+02  0.1857E+02
      0.845  0.1592E+01  0.1593E+01  0.1883E+02  0.1883E+02
      1.010  0.1638E+01  0.1636E+01  0.1910E+02  0.1910E+02
      1.174  0.1803E+01  0.1795E+01  0.1940E+02  0.1939E+02
      1.338  0.2427E+01  0.2417E+01  0.1980E+02  0.1979E+02
      1.502  0.2763E+01  0.2766E+01  0.2025E+02  0.2025E+02
      1.667  0.2425E+01  0.2435E+01  0.2065E+02  0.2065E+02
      1.831  0.2578E+01  0.2575E+01  0.2108E+02  0.2107E+02
      1.995  0.3857E+01  0.3843E+01  0.2171E+02  0.2170E+02
      2.160  0.5758E+01  0.5750E+01  0.2266E+02  0.2265E+02
      2.324  0.5285E+01  0.5295E+01  0.2353E+02  0.2352E+02
      2.488  0.4367E+01  0.4374E+01  0.2425E+02  0.2424E+02
      2.653  0.3874E+01  0.3877E+01  0.2489E+02  0.2488E+02
      2.817  0.3511E+01  0.3514E+01  0.2547E+02  0.2546E+02
      2.981  0.3225E+01  0.3221E+01  0.2600E+02  0.2599E+02
      3.146  0.2990E+01  0.2999E+01  0.2649E+02  0.2649E+02
      3.310  0.2674E+01  0.2640E+01  0.2693E+02  0.2692E+02
      3.474  0.2318E+01  0.2231E+01  0.2732E+02  0.2729E+02
      3.639  0.2340E+01  0.2313E+01  0.2770E+02  0.2767E+02
      3.803  0.1516E+01  0.1598E+01  0.2795E+02  0.2794E+02
      3.967  0.2697E+00  0.3604E+00  0.2800E+02  0.2800E+02
      4.132  0.1487E-01  0.1882E-01  0.2800E+02  0.2800E+02
      4.296  0.0000E+00  0.0000E+00  0.2800E+02  0.2800E+02
      4.460  0.0000E+00  0.0000E+00  0.2800E+02  0.2800E+02
      4.625  0.0000E+00  0.0000E+00  0.2800E+02  0.2800E+02
      4.789  0.0000E+00  0.0000E+00  0.2800E+02  0.2800E+02
      4.953  0.0000E+00  0.0000E+00  0.2800E+02  0.2800E+02
      5.118  0.0000E+00  0.0000E+00  0.2800E+02  0.2800E+02
      5.282  0.0000E+00  0.0000E+00  0.2800E+02  0.2800E+02
      5.446  0.0000E+00  0.0000E+00  0.2800E+02  0.2800E+02
      5.611  0.0000E+00  0.0000E+00  0.2800E+02  0.2800E+02
      5.775  0.0000E+00  0.0000E+00  0.2800E+02  0.2800E+02
      5.939  0.0000E+00  0.0000E+00  0.2800E+02  0.2800E+02
      6.104  0.0000E+00  0.0000E+00  0.2800E+02  0.2800E+02
      6.10357198    -43.19383255  301      1.41235579      1.00000000
    -43.194  0.0000E+00  0.0000E+00  0.0000E+00  0.0000E+00  0.0000E+00  0.0000E+00  0.0000E+00  0.0000E+00  0.0000E+00  0.0000E+00  0.0000E+00  0.0000E+00  0.0000E+00  0.0000E+00  0.0000E+00  0.0000E+00  0.0000E+00  0.0000E+00
    -43.030  0.0000E+00  0.0000E+00  0.0000E+00  0.0000E+00  0.0000E+00  0.0000E+00  0.0000E+00  0.0000E+00  0.0000E+00  0.0000E+00  0.0000E+00  0.0000E+00  0.0000E+00  0.0000E+00  0.0000E+00  0.0000E+00  0.0000E+00  0.0000E+00
    -42.865  0.0000E+00  0.0000E+00  0.0000E+00  0.0000E+00  0.0000E+00  0.0000E+00  0.0000E+00  0.0000E+00  0.0000E+00  0.0000E+00  0.0000E+00  0.0000E+00  0.0000E+00  0.0000E+00  0.0000E+00  0.0000E+00  0.0000E+00  0.0000E+00
    -42.701  0.0000E+00  0.0000E+00  0.0000E+00  0.0000E+00  0.0000E+00  0.0000E+00  0.0000E+00  0.0000E+00  0.0000E+00  0.0000E+00  0.0000E+00  0.0000E+00  0.0000E+00  0.0000E+00  0.0000E+00  0.0000E+00  0.0000E+00  0.0000E+00
    -42.537  0.0000E+00  0.0000E+00  0.0000E+00  0.0000E+00  0.0000E+00  0.0000E+00  0.0000E+00  0.0000E+00  0.0000E+00  0.0000E+00  0.0000E+00  0.0000E+00  0.0000E+00  0.0000E+00  0.0000E+00  0.0000E+00  0.0000E+00  0.0000E+00
    -42.372  0.0000E+00  0.0000E+00  0.0000E+00  0.0000E+00  0.0000E+00  0.0000E+00  0.0000E+00  0.0000E+00  0.0000E+00  0.0000E+00  0.0000E+00  0.0000E+00  0.0000E+00  0.0000E+00  0.0000E+00  0.0000E+00  0.0000E+00  0.0000E+00
    -42.208  0.0000E+00  0.0000E+00  0.0000E+00  0.0000E+00  0.0000E+00  0.0000E+00  0.0000E+00  0.0000E+00  0.0000E+00  0.0000E+00  0.0000E+00  0.0000E+00  0.0000E+00  0.0000E+00  0.0000E+00  0.0000E+00  0.0000E+00  0.0000E+00
    -42.044  0.0000E+00  0.0000E+00  0.0000E+00  0.0000E+00  0.0000E+00  0.0000E+00  0.0000E+00  0.0000E+00  0.0000E+00  0.0000E+00  0.0000E+00  0.0000E+00  0.0000E+00  0.0000E+00  0.0000E+00  0.0000E+00  0.0000E+00  0.0000E+00
    -41.879  0.0000E+00  0.0000E+00  0.0000E+00  0.0000E+00  0.0000E+00  0.0000E+00  0.0000E+00  0.0000E+00  0.0000E+00  0.0000E+00  0.0000E+00  0.0000E+00  0.0000E+00  0.0000E+00  0.0000E+00  0.0000E+00  0.0000E+00  0.0000E+00
    -41.715  0.0000E+00  0.0000E+00  0.0000E+00  0.0000E+00  0.0000E+00  0.0000E+00  0.0000E+00  0.0000E+00  0.0000E+00  0.0000E+00  0.0000E+00  0.0000E+00  0.0000E+00  0.0000E+00  0.0000E+00  0.0000E+00  0.0000E+00  0.0000E+00
    -41.551  0.0000E+00  0.0000E+00  0.0000E+00  0.0000E+00  0.0000E+00  0.0000E+00  0.0000E+00  0.0000E+00  0.0000E+00  0.0000E+00  0.0000E+00  0.0000E+00  0.0000E+00  0.0000E+00  0.0000E+00  0.0000E+00  0.0000E+00  0.0000E+00
    -41.386  0.9089E-03  0.9035E-03  0.1355E-10  0.1343E-10  0.1355E-10  0.1343E-10  0.1355E-10  0.1343E-10  0.4987E-11  0.4902E-11  0.4987E-11  0.4902E-11  0.2440E-11  0.2385E-11  0.4987E-11  0.4902E-11  0.2440E-11  0.2385E-11
    -41.222  0.2331E-01  0.2317E-01  0.3475E-09  0.3444E-09  0.3475E-09  0.3444E-09  0.3475E-09  0.3444E-09  0.1279E-09  0.1257E-09  0.1279E-09  0.1257E-09  0.6259E-10  0.6117E-10  0.1279E-09  0.1257E-09  0.6259E-10  0.6117E-10
    -41.058  0.5626E+00  0.5595E+00  0.8369E-08  0.8300E-08  0.8369E-08  0.8300E-08  0.8369E-08  0.8300E-08  0.3087E-08  0.3037E-08  0.3087E-08  0.3037E-08  0.1514E-08  0.1481E-08  0.3087E-08  0.3037E-08  0.1514E-08  0.1481E-08
    -40.893  0.3876E+01  0.3872E+01  0.5673E-07  0.5652E-07  0.5673E-07  0.5652E-07  0.5673E-07  0.5652E-07  0.2128E-07  0.2102E-07  0.2128E-07  0.2102E-07  0.1060E-07  0.1042E-07  0.2128E-07  0.2102E-07  0.1060E-07  0.1042E-07
    -40.729  0.1465E+01  0.1472E+01  0.2103E-07  0.2106E-07  0.2103E-07  0.2106E-07  0.2103E-07  0.2106E-07  0.8042E-08  0.7988E-08  0.8042E-08  0.7988E-08  0.4086E-08  0.4035E-08  0.8042E-08  0.7988E-08  0.4086E-08  0.4035E-08
    -40.565  0.7369E-01  0.7413E-01  0.1052E-08  0.1055E-08  0.1052E-08  0.1055E-08  0.1052E-08  0.1055E-08  0.4044E-09  0.4023E-09  0.4044E-09  0.4023E-09  0.2066E-09  0.2043E-09  0.4044E-09  0.4023E-09  0.2066E-09  0.2043E-09
    -40.400  0.0000E+00  0.0000E+00  0.0000E+00  0.0000E+00  0.0000E+00  0.0000E+00  0.0000E+00  0.0000E+00  0.0000E+00  0.0000E+00  0.0000E+00  0.0000E+00  0.0000E+00  0.0000E+00  0.0000E+00  0.0000E+00  0.0000E+00  0.0000E+00
    -40.236  0.0000E+00  0.0000E+00  0.0000E+00  0.0000E+00  0.0000E+00  0.0000E+00  0.0000E+00  0.0000E+00  0.0000E+00  0.0000E+00  0.0000E+00  0.0000E+00  0.0000E+00  0.0000E+00  0.0000E+00  0.0000E+00  0.0000E+00  0.0000E+00
    -40.072  0.0000E+00  0.0000E+00  0.0000E+00  0.0000E+00  0.0000E+00  0.0000E+00  0.0000E+00  0.0000E+00  0.0000E+00  0.0000E+00  0.0000E+00  0.0000E+00  0.0000E+00  0.0000E+00  0.0000E+00  0.0000E+00  0.0000E+00  0.0000E+00
    -39.907  0.0000E+00  0.0000E+00  0.0000E+00  0.0000E+00  0.0000E+00  0.0000E+00  0.0000E+00  0.0000E+00  0.0000E+00  0.0000E+00  0.0000E+00  0.0000E+00  0.0000E+00  0.0000E+00  0.0000E+00  0.0000E+00  0.0000E+00  0.0000E+00
    -39.743  0.0000E+00  0.0000E+00  0.0000E+00  0.0000E+00  0.0000E+00  0.0000E+00  0.0000E+00  0.0000E+00  0.0000E+00  0.0000E+00  0.0000E+00  0.0000E+00  0.0000E+00  0.0000E+00  0.0000E+00  0.0000E+00  0.0000E+00  0.0000E+00
    -39.579  0.0000E+00  0.0000E+00  0.0000E+00  0.0000E+00  0.0000E+00  0.0000E+00  0.0000E+00  0.0000E+00  0.0000E+00  0.0000E+00  0.0000E+00  0.0000E+00  0.0000E+00  0.0000E+00  0.0000E+00  0.0000E+00  0.0000E+00  0.0000E+00
    -39.414  0.0000E+00  0.0000E+00  0.0000E+00  0.0000E+00  0.0000E+00  0.0000E+00  0.0000E+00  0.0000E+00  0.0000E+00  0.0000E+00  0.0000E+00  0.0000E+00  0.0000E+00  0.0000E+00  0.0000E+00  0.0000E+00  0.0000E+00  0.0000E+00
    -39.250  0.0000E+00  0.0000E+00  0.0000E+00  0.0000E+00  0.0000E+00  0.0000E+00  0.0000E+00  0.0000E+00  0.0000E+00  0.0000E+00  0.0000E+00  0.0000E+00  0.0000E+00  0.0000E+00  0.0000E+00  0.0000E+00  0.0000E+00  0.0000E+00
    -39.086  0.0000E+00  0.0000E+00  0.0000E+00  0.0000E+00  0.0000E+00  0.0000E+00  0.0000E+00  0.0000E+00  0.0000E+00  0.0000E+00  0.0000E+00  0.0000E+00  0.0000E+00  0.0000E+00  0.0000E+00  0.0000E+00  0.0000E+00  0.0000E+00
    -38.921  0.0000E+00  0.0000E+00  0.0000E+00  0.0000E+00  0.0000E+00  0.0000E+00  0.0000E+00  0.0000E+00  0.0000E+00  0.0000E+00  0.0000E+00  0.0000E+00  0.0000E+00  0.0000E+00  0.0000E+00  0.0000E+00  0.0000E+00  0.0000E+00
    -38.757  0.0000E+00  0.0000E+00  0.0000E+00  0.0000E+00  0.0000E+00  0.0000E+00  0.0000E+00  0.0000E+00  0.0000E+00  0.0000E+00  0.0000E+00  0.0000E+00  0.0000E+00  0.0000E+00  0.0000E+00  0.0000E+00  0.0000E+00  0.0000E+00
    -38.593  0.0000E+00  0.0000E+00  0.0000E+00  0.0000E+00  0.0000E+00  0.0000E+00  0.0000E+00  0.0000E+00  0.0000E+00  0.0000E+00  0.0000E+00  0.0000E+00  0.0000E+00  0.0000E+00  0.0000E+00  0.0000E+00  0.0000E+00  0.0000E+00
    -38.428  0.0000E+00  0.0000E+00  0.0000E+00  0.0000E+00  0.0000E+00  0.0000E+00  0.0000E+00  0.0000E+00  0.0000E+00  0.0000E+00  0.0000E+00  0.0000E+00  0.0000E+00  0.0000E+00  0.0000E+00  0.0000E+00  0.0000E+00  0.0000E+00
    -38.264  0.0000E+00  0.0000E+00  0.0000E+00  0.0000E+00  0.0000E+00  0.0000E+00  0.0000E+00  0.0000E+00  0.0000E+00  0.0000E+00  0.0000E+00  0.0000E+00  0.0000E+00  0.0000E+00  0.0000E+00  0.0000E+00  0.0000E+00  0.0000E+00
    -38.100  0.0000E+00  0.0000E+00  0.0000E+00  0.0000E+00  0.0000E+00  0.0000E+00  0.0000E+00  0.0000E+00  0.0000E+00  0.0000E+00  0.0000E+00  0.0000E+00  0.0000E+00  0.0000E+00  0.0000E+00  0.0000E+00  0.0000E+00  0.0000E+00
    -37.935  0.0000E+00  0.0000E+00  0.0000E+00  0.0000E+00  0.0000E+00  0.0000E+00  0.0000E+00  0.0000E+00  0.0000E+00  0.0000E+00  0.0000E+00  0.0000E+00  0.0000E+00  0.0000E+00  0.0000E+00  0.0000E+00  0.0000E+00  0.0000E+00
    -37.771  0.0000E+00  0.0000E+00  0.0000E+00  0.0000E+00  0.0000E+00  0.0000E+00  0.0000E+00  0.0000E+00  0.0000E+00  0.0000E+00  0.0000E+00  0.0000E+00  0.0000E+00  0.0000E+00  0.0000E+00  0.0000E+00  0.0000E+00  0.0000E+00
    -37.607  0.0000E+00  0.0000E+00  0.0000E+00  0.0000E+00  0.0000E+00  0.0000E+00  0.0000E+00  0.0000E+00  0.0000E+00  0.0000E+00  0.0000E+00  0.0000E+00  0.0000E+00  0.0000E+00  0.0000E+00  0.0000E+00  0.0000E+00  0.0000E+00
    -37.442  0.0000E+00  0.0000E+00  0.0000E+00  0.0000E+00  0.0000E+00  0.0000E+00  0.0000E+00  0.0000E+00  0.0000E+00  0.0000E+00  0.0000E+00  0.0000E+00  0.0000E+00  0.0000E+00  0.0000E+00  0.0000E+00  0.0000E+00  0.0000E+00
    -37.278  0.0000E+00  0.0000E+00  0.0000E+00  0.0000E+00  0.0000E+00  0.0000E+00  0.0000E+00  0.0000E+00  0.0000E+00  0.0000E+00  0.0000E+00  0.0000E+00  0.0000E+00  0.0000E+00  0.0000E+00  0.0000E+00  0.0000E+00  0.0000E+00
    -37.114  0.0000E+00  0.0000E+00  0.0000E+00  0.0000E+00  0.0000E+00  0.0000E+00  0.0000E+00  0.0000E+00  0.0000E+00  0.0000E+00  0.0000E+00  0.0000E+00  0.0000E+00  0.0000E+00  0.0000E+00  0.0000E+00  0.0000E+00  0.0000E+00
    -36.949  0.0000E+00  0.0000E+00  0.0000E+00  0.0000E+00  0.0000E+00  0.0000E+00  0.0000E+00  0.0000E+00  0.0000E+00  0.0000E+00  0.0000E+00  0.0000E+00  0.0000E+00  0.0000E+00  0.0000E+00  0.0000E+00  0.0000E+00  0.0000E+00
    -36.785  0.0000E+00  0.0000E+00  0.0000E+00  0.0000E+00  0.0000E+00  0.0000E+00  0.0000E+00  0.0000E+00  0.0000E+00  0.0000E+00  0.0000E+00  0.0000E+00  0.0000E+00  0.0000E+00  0.0000E+00  0.0000E+00  0.0000E+00  0.0000E+00
    -36.621  0.0000E+00  0.0000E+00  0.0000E+00  0.0000E+00  0.0000E+00  0.0000E+00  0.0000E+00  0.0000E+00  0.0000E+00  0.0000E+00  0.0000E+00  0.0000E+00  0.0000E+00  0.0000E+00  0.0000E+00  0.0000E+00  0.0000E+00  0.0000E+00
    -36.457  0.0000E+00  0.0000E+00  0.0000E+00  0.0000E+00  0.0000E+00  0.0000E+00  0.0000E+00  0.0000E+00  0.0000E+00  0.0000E+00  0.0000E+00  0.0000E+00  0.0000E+00  0.0000E+00  0.0000E+00  0.0000E+00  0.0000E+00  0.0000E+00
    -36.292  0.0000E+00  0.0000E+00  0.0000E+00  0.0000E+00  0.0000E+00  0.0000E+00  0.0000E+00  0.0000E+00  0.0000E+00  0.0000E+00  0.0000E+00  0.0000E+00  0.0000E+00  0.0000E+00  0.0000E+00  0.0000E+00  0.0000E+00  0.0000E+00
    -36.128  0.0000E+00  0.0000E+00  0.0000E+00  0.0000E+00  0.0000E+00  0.0000E+00  0.0000E+00  0.0000E+00  0.0000E+00  0.0000E+00  0.0000E+00  0.0000E+00  0.0000E+00  0.0000E+00  0.0000E+00  0.0000E+00  0.0000E+00  0.0000E+00
    -35.964  0.0000E+00  0.0000E+00  0.0000E+00  0.0000E+00  0.0000E+00  0.0000E+00  0.0000E+00  0.0000E+00  0.0000E+00  0.0000E+00  0.0000E+00  0.0000E+00  0.0000E+00  0.0000E+00  0.0000E+00  0.0000E+00  0.0000E+00  0.0000E+00
    -35.799  0.0000E+00  0.0000E+00  0.0000E+00  0.0000E+00  0.0000E+00  0.0000E+00  0.0000E+00  0.0000E+00  0.0000E+00  0.0000E+00  0.0000E+00  0.0000E+00  0.0000E+00  0.0000E+00  0.0000E+00  0.0000E+00  0.0000E+00  0.0000E+00
    -35.635  0.0000E+00  0.0000E+00  0.0000E+00  0.0000E+00  0.0000E+00  0.0000E+00  0.0000E+00  0.0000E+00  0.0000E+00  0.0000E+00  0.0000E+00  0.0000E+00  0.0000E+00  0.0000E+00  0.0000E+00  0.0000E+00  0.0000E+00  0.0000E+00
    -35.471  0.0000E+00  0.0000E+00  0.0000E+00  0.0000E+00  0.0000E+00  0.0000E+00  0.0000E+00  0.0000E+00  0.0000E+00  0.0000E+00  0.0000E+00  0.0000E+00  0.0000E+00  0.0000E+00  0.0000E+00  0.0000E+00  0.0000E+00  0.0000E+00
    -35.306  0.0000E+00  0.0000E+00  0.0000E+00  0.0000E+00  0.0000E+00  0.0000E+00  0.0000E+00  0.0000E+00  0.0000E+00  0.0000E+00  0.0000E+00  0.0000E+00  0.0000E+00  0.0000E+00  0.0000E+00  0.0000E+00  0.0000E+00  0.0000E+00
    -35.142  0.0000E+00  0.0000E+00  0.0000E+00  0.0000E+00  0.0000E+00  0.0000E+00  0.0000E+00  0.0000E+00  0.0000E+00  0.0000E+00  0.0000E+00  0.0000E+00  0.0000E+00  0.0000E+00  0.0000E+00  0.0000E+00  0.0000E+00  0.0000E+00
    -34.978  0.0000E+00  0.0000E+00  0.0000E+00  0.0000E+00  0.0000E+00  0.0000E+00  0.0000E+00  0.0000E+00  0.0000E+00  0.0000E+00  0.0000E+00  0.0000E+00  0.0000E+00  0.0000E+00  0.0000E+00  0.0000E+00  0.0000E+00  0.0000E+00