   4   4   1   0
  0.5319552E+02  0.5970055E-09  0.5970055E-09  0.5970055E-09  0.5000000E-15
  1.000000000000000E-004
  CAR 
 unknown system                          
      5.80491000    -43.68833413  301      1.12867191      1.00000000
    -43.688  0.0000E+00  0.0000E+00  0.0000E+00  0.0000E+00
    -43.523  0.0000E+00  0.0000E+00  0.0000E+00  0.0000E+00
    -43.358  0.0000E+00  0.0000E+00  0.0000E+00  0.0000E+00
    -43.193  0.0000E+00  0.0000E+00  0.0000E+00  0.0000E+00
    -43.028  0.0000E+00  0.0000E+00  0.0000E+00  0.0000E+00
    -42.863  0.0000E+00  0.0000E+00  0.0000E+00  0.0000E+00
    -42.698  0.0000E+00  0.0000E+00  0.0000E+00  0.0000E+00
    -42.533  0.0000E+00  0.0000E+00  0.0000E+00  0.0000E+00
    -42.369  0.0000E+00  0.0000E+00  0.0000E+00  0.0000E+00
    -42.204  0.0000E+00  0.0000E+00  0.0000E+00  0.0000E+00
    -42.039  0.0000E+00  0.0000E+00  0.0000E+00  0.0000E+00
    -41.874  0.3712E-02  0.3706E-02  0.6124E-03  0.6114E-03
    -41.709  0.9648E-01  0.9633E-01  0.1653E-01  0.1650E-01
    -41.544  0.2351E+01  0.2347E+01  0.4043E+00  0.4037E+00
    -41.379  0.1580E+02  0.1580E+02  0.3011E+01  0.3010E+01
    -41.214  0.5702E+01  0.5709E+01  0.3952E+01  0.3952E+01
    -41.049  0.2794E+00  0.2798E+00  0.3998E+01  0.3998E+01
    -40.884  0.0000E+00  0.0000E+00  0.4000E+01  0.4000E+01
    -40.719  0.0000E+00  0.0000E+00  0.4000E+01  0.4000E+01
    -40.554  0.0000E+00  0.0000E+00  0.4000E+01  0.4000E+01
    -40.389  0.0000E+00  0.0000E+00  0.4000E+01  0.4000E+01
    -40.224  0.0000E+00  0.0000E+00  0.4000E+01  0.4000E+01
    -40.059  0.0000E+00  0.0000E+00  0.4000E+01  0.4000E+01
    -39.894  0.0000E+00  0.0000E+00  0.4000E+01  0.4000E+01
    -39.729  0.0000E+00  0.0000E+00  0.4000E+01  0.4000E+01
    -39.564  0.0000E+00  0.0000E+00  0.4000E+01  0.4000E+01
    -39.399  0.0000E+00  0.0000E+00  0.4000E+01  0.4000E+01
    -39.234  0.0000E+00  0.0000E+00  0.4000E+01  0.4000E+01
    -39.069  0.0000E+00  0.0000E+00  0.4000E+01  0.4000E+01
    -38.904  0.0000E+00  0.0000E+00  0.4000E+01  0.4000E+01
    -38.739  0.0000E+00  0.0000E+00  0.4000E+01  0.4000E+01
    -38.574  0.0000E+00  0.0000E+00  0.4000E+01  0.4000E+01
    -38.409  0.0000E+00  0.0000E+00  0.4000E+01  0.4000E+01
    -38.244  0.0000E+00  0.0000E+00  0.4000E+01  0.4000E+01
    -38.079  0.0000E+00  0.0000E+00  0.4000E+01  0.4000E+01
    -37.914  0.0000E+00  0.0000E+00  0.4000E+01  0.4000E+01
    -37.749  0.0000E+00  0.0000E+00  0.4000E+01  0.4000E+01
    -37.584  0.0000E+00  0.0000E+00  0.4000E+01  0.4000E+01
    -37.419  0.0000E+00  0.0000E+00  0.4000E+01  0.4000E+01
    -37.254  0.0000E+00  0.0000E+00  0.4000E+01  0.4000E+01
    -37.089  0.0000E+00  0.0000E+00  0.4000E+01  0.4000E+01
    -36.924  0.0000E+00  0.0000E+00  0.4000E+01  0.4000E+01
    -36.759  0.0000E+00  0.0000E+00  0.4000E+01  0.4000E+01
    -36.594  0.0000E+00  0.0000E+00  0.4000E+01  0.4000E+01
    -36.429  0.0000E+00  0.0000E+00  0.4000E+01  0.4000E+01
    -36.264  0.0000E+00  0.0000E+00  0.4000E+01  0.4000E+01
    -36.099  0.0000E+00  0.0000E+00  0.4000E+01  0.4000E+01
    -35.934  0.0000E+00  0.0000E+00  0.4000E+01  0.4000E+01
    -35.769  0.0000E+00  0.0000E+00  0.4000E+01  0.4000E+01
    -35.604  0.0000E+00  0.0000E+00  0.4000E+01  0.4000E+01
    -35.439  0.0000E+00  0.0000E+00  0.4000E+01  0.4000E+01
    -35.274  0.0000E+00  0.0000E+00  0.4000E+01  0.4000E+01
    -35.110  0.0000E+00  0.0000E+00  0.4000E+01  0.4000E+01
    -34.945  0.0000E+00  0.0000E+00  0.4000E+01  0.4000E+01
    -34.780  0.0000E+00  0.0000E+00  0.4000E+01  0.4000E+01
    -34.615  0.0000E+00  0.0000E+00  0.4000E+01  0.4000E+01
    -34.450  0.0000E+00  0.0000E+00  0.4000E+01  0.4000E+01
    -34.285  0.0000E+00  0.0000E+00  0.4000E+01  0.4000E+01
    -34.120  0.0000E+00  0.0000E+00  0.4000E+01  0.4000E+01
    -33.955  0.0000E+00  0.0000E+00  0.4000E+01  0.4000E+01
    -33.790  0.0000E+00  0.0000E+00  0.4000E+01  0.4000E+01
    -33.625  0.0000E+00  0.0000E+00  0.4000E+01  0.4000E+01
    -33.460  0.0000E+00  0.0000E+00  0.4000E+01  0.4000E+01
    -33.295  0.0000E+00  0.0000E+00  0.4000E+01  0.4000E+01
    -33.130  0.0000E+00  0.0000E+00  0.4000E+01  0.4000E+01
    -32.965  0.0000E+00  0.0000E+00  0.4000E+01  0.4000E+01
    -32.800  0.0000E+00  0.0000E+00  0.4000E+01  0.4000E+01
    -32.635  0.0000E+00  0.0000E+00  0.4000E+01  0.4000E+01
    -32.470  0.0000E+00  0.0000E+00  0.4000E+01  0.4000E+01
    -32.305  0.0000E+00  0.0000E+00  0.4000E+01  0.4000E+01
    -32.140  0.0000E+00  0.0000E+00  0.4000E+01  0.4000E+01
    -31.975  0.0000E+00  0.0000E+00  0.4000E+01  0.4000E+01
    -31.810  0.0000E+00  0.0000E+00  0.4000E+01  0.4000E+01
    -31.645  0.0000E+00  0.0000E+00  0.4000E+01  0.4000E+01
    -31.480  0.0000E+00  0.0000E+00  0.4000E+01  0.4000E+01
    -31.315  0.0000E+00  0.0000E+00  0.4000E+01  0.4000E+01
    -31.150  0.0000E+00  0.0000E+00  0.4000E+01  0.4000E+01
    -30.985  0.0000E+00  0.0000E+00  0.4000E+01  0.4000E+01
    -30.820  0.0000E+00  0.0000E+00  0.4000E+01  0.4000E+01
    -30.655  0.0000E+00  0.0000E+00  0.4000E+01  0.4000E+01
    -30.490  0.0000E+00  0.0000E+00  0.4000E+01  0.4000E+01
    -30.325  0.0000E+00  0.0000E+00  0.4000E+01  0.4000E+01
    -30.160  0.0000E+00  0.0000E+00  0.4000E+01  0.4000E+01
    -29.995  0.0000E+00  0.0000E+00  0.4000E+01  0.4000E+01
    -29.830  0.0000E+00  0.0000E+00  0.4000E+01  0.4000E+01
    -29.665  0.0000E+00  0.0000E+00  0.4000E+01  0.4000E+01
    -29.500  0.0000E+00  0.0000E+00  0.4000E+01  0.4000E+01
    -29.335  0.0000E+00  0.0000E+00  0.4000E+01  0.4000E+01
    -29.170  0.0000E+00  0.0000E+00  0.4000E+01  0.4000E+01
    -29.005  0.0000E+00  0.0000E+00  0.4000E+01  0.4000E+01
    -28.840  0.0000E+00  0.0000E+00  0.4000E+01  0.4000E+01
    -28.675  0.0000E+00  0.0000E+00  0.4000E+01  0.4000E+01
    -28.510  0.0000E+00  0.0000E+00  0.4000E+01  0.4000E+01
    -28.345  0.0000E+00  0.0000E+00  0.4000E+01  0.4000E+01
    -28.180  0.0000E+00  0.0000E+00  0.4000E+01  0.4000E+01
    -28.015  0.0000E+00  0.0000E+00  0.4000E+01  0.4000E+01
    -27.850  0.0000E+00  0.0000E+00  0.4000E+01  0.4000E+01
    -27.686  0.0000E+00  0.0000E+00  0.4000E+01  0.4000E+01
    -27.521  0.0000E+00  0.0000E+00  0.4000E+01  0.4000E+01
    -27.356  0.0000E+00  0.0000E+00  0.4000E+01  0.4000E+01
    -27.191  0.0000E+00  0.0000E+00  0.4000E+01  0.4000E+01
    -27.026  0.0000E+00  0.0000E+00  0.4000E+01  0.4000E+01
    -26.861  0.0000E+00  0.0000E+00  0.4000E+01  0.4000E+01
    -26.696  0.0000E+00  0.0000E+00  0.4000E+01  0.4000E+01
    -26.531  0.0000E+00  0.0000E+00  0.4000E+01  0.4000E+01
    -26.366  0.0000E+00  0.0000E+00  0.4000E+01  0.4000E+01
    -26.201  0.0000E+00  0.0000E+00  0.4000E+01  0.4000E+01
    -26.036  0.0000E+00  0.0000E+00  0.4000E+01  0.4000E+01
    -25.871  0.0000E+00  0.0000E+00  0.4000E+01  0.4000E+01
    -25.706  0.0000E+00  0.0000E+00  0.4000E+01  0.4000E+01
    -25.541  0.0000E+00  0.0000E+00  0.4000E+01  0.4000E+01
    -25.376  0.0000E+00  0.0000E+00  0.4000E+01  0.4000E+01
    -25.211  0.0000E+00  0.0000E+00  0.4000E+01  0.4000E+01
    -25.046  0.0000E+00  0.0000E+00  0.4000E+01  0.4000E+01
    -24.881  0.0000E+00  0.0000E+00  0.4000E+01  0.4000E+01
    -24.716  0.0000E+00  0.0000E+00  0.4000E+01  0.4000E+01
    -24.551  0.0000E+00  0.0000E+00  0.4000E+01  0.4000E+01
    -24.386  0.0000E+00  0.0000E+00  0.4000E+01  0.4000E+01
    -24.221  0.0000E+00  0.0000E+00  0.4000E+01  0.4000E+01
    -24.056  0.0000E+00  0.0000E+00  0.4000E+01  0.4000E+01
    -23.891  0.0000E+00  0.0000E+00  0.4000E+01  0.4000E+01
    -23.726  0.0000E+00  0.0000E+00  0.4000E+01  0.4000E+01
    -23.561  0.0000E+00  0.0000E+00  0.4000E+01  0.4000E+01
    -23.396  0.0000E+00  0.0000E+00  0.4000E+01  0.4000E+01
    -23.231  0.0000E+00  0.0000E+00  0.4000E+01  0.4000E+01
    -23.066  0.0000E+00  0.0000E+00  0.4000E+01  0.4000E+01
    -22.901  0.2993E-02  0.2988E-02  0.4000E+01  0.4000E+01
    -22.736  0.7803E-01  0.7789E-01  0.4013E+01  0.4013E+01
    -22.571  0.2047E+01  0.2043E+01  0.4351E+01  0.4350E+01
    -22.406  0.2989E+02  0.2986E+02  0.9282E+01  0.9277E+01
    -22.241  0.3733E+02  0.3735E+02  0.1544E+02  0.1544E+02
    -22.076  0.3264E+01  0.3269E+01  0.1598E+02  0.1598E+02
    -21.911  0.0000E+00  0.0000E+00  0.1600E+02  0.1600E+02
    -21.746  0.0000E+00  0.0000E+00  0.1600E+02  0.1600E+02
    -21.581  0.0000E+00  0.0000E+00  0.1600E+02  0.1600E+02
    -21.416  0.0000E+00  0.0000E+00  0.1600E+02  0.1600E+02
    -21.251  0.0000E+00  0.0000E+00  0.1600E+02  0.1600E+02
    -21.086  0.0000E+00  0.0000E+00  0.1600E+02  0.1600E+02
    -20.921  0.0000E+00  0.0000E+00  0.1600E+02  0.1600E+02
    -20.756  0.0000E+00  0.0000E+00  0.1600E+02  0.1600E+02
    -20.591  0.0000E+00  0.0000E+00  0.1600E+02  0.1600E+02
    -20.427  0.0000E+00  0.0000E+00  0.1600E+02  0.1600E+02
    -20.262  0.0000E+00  0.0000E+00  0.1600E+02  0.1600E+02
    -20.097  0.0000E+00  0.0000E+00  0.1600E+02  0.1600E+02
    -19.932  0.0000E+00  0.0000E+00  0.1600E+02  0.1600E+02
    -19.767  0.0000E+00  0.0000E+00  0.1600E+02  0.1600E+02
    -19.602  0.0000E+00  0.0000E+00  0.1600E+02  0.1600E+02
    -19.437  0.0000E+00  0.0000E+00  0.1600E+02  0.1600E+02
    -19.272  0.0000E+00  0.0000E+00  0.1600E+02  0.1600E+02
    -19.107  0.0000E+00  0.0000E+00  0.1600E+02  0.1600E+02
    -18.942  0.0000E+00  0.0000E+00  0.1600E+02  0.1600E+02
    -18.777  0.0000E+00  0.0000E+00  0.1600E+02  0.1600E+02
    -18.612  0.0000E+00  0.0000E+00  0.1600E+02  0.1600E+02
    -18.447  0.0000E+00  0.0000E+00  0.1600E+02  0.1600E+02
    -18.282  0.0000E+00  0.0000E+00  0.1600E+02  0.1600E+02
    -18.117  0.0000E+00  0.0000E+00  0.1600E+02  0.1600E+02
    -17.952  0.0000E+00  0.0000E+00  0.1600E+02  0.1600E+02
    -17.787  0.0000E+00  0.0000E+00  0.1600E+02  0.1600E+02
    -17.622  0.0000E+00  0.0000E+00  0.1600E+02  0.1600E+02
    -17.457  0.0000E+00  0.0000E+00  0.1600E+02  0.1600E+02
    -17.292  0.0000E+00  0.0000E+00  0.1600E+02  0.1600E+02
    -17.127  0.0000E+00  0.0000E+00  0.1600E+02  0.1600E+02
    -16.962  0.0000E+00  0.0000E+00  0.1600E+02  0.1600E+02
    -16.797  0.0000E+00  0.0000E+00  0.1600E+02  0.1600E+02
    -16.632  0.0000E+00  0.0000E+00  0.1600E+02  0.1600E+02
    -16.467  0.0000E+00  0.0000E+00  0.1600E+02  0.1600E+02
    -16.302  0.0000E+00  0.0000E+00  0.1600E+02  0.1600E+02
    -16.137  0.0000E+00  0.0000E+00  0.1600E+02  0.1600E+02
    -15.972  0.0000E+00  0.0000E+00  0.1600E+02  0.1600E+02
    -15.807  0.0000E+00  0.0000E+00  0.1600E+02  0.1600E+02
    -15.642  0.0000E+00  0.0000E+00  0.1600E+02  0.1600E+02
    -15.477  0.0000E+00  0.0000E+00  0.1600E+02  0.1600E+02
    -15.312  0.0000E+00  0.0000E+00  0.1600E+02  0.1600E+02
    -15.147  0.0000E+00  0.0000E+00  0.1600E+02  0.1600E+02
    -14.982  0.0000E+00  0.0000E+00  0.1600E+02  0.1600E+02
    -14.817  0.0000E+00  0.0000E+00  0.1600E+02  0.1600E+02
    -14.652  0.0000E+00  0.0000E+00  0.1600E+02  0.1600E+02
    -14.487  0.0000E+00  0.0000E+00  0.1600E+02  0.1600E+02
    -14.322  0.0000E+00  0.0000E+00  0.1600E+02  0.1600E+02
    -14.157  0.0000E+00  0.0000E+00  0.1600E+02  0.1600E+02
    -13.992  0.0000E+00  0.0000E+00  0.1600E+02  0.1600E+02
    -13.827  0.0000E+00  0.0000E+00  0.1600E+02  0.1600E+02
    -13.662  0.0000E+00  0.0000E+00  0.1600E+02  0.1600E+02
    -13.497  0.0000E+00  0.0000E+00  0.1600E+02  0.1600E+02
    -13.332  0.0000E+00  0.0000E+00  0.1600E+02  0.1600E+02
    -13.168  0.0000E+00  0.0000E+00  0.1600E+02  0.1600E+02
    -13.003  0.0000E+00  0.0000E+00  0.1600E+02  0.1600E+02
    -12.838  0.0000E+00  0.0000E+00  0.1600E+02  0.1600E+02
    -12.673  0.0000E+00  0.0000E+00  0.1600E+02  0.1600E+02
    -12.508  0.0000E+00  0.0000E+00  0.1600E+02  0.1600E+02
    -12.343  0.0000E+00  0.0000E+00  0.1600E+02  0.1600E+02
    -12.178  0.0000E+00  0.0000E+00  0.1600E+02  0.1600E+02
    -12.013  0.0000E+00  0.0000E+00  0.1600E+02  0.1600E+02
    -11.848  0.0000E+00  0.0000E+00  0.1600E+02  0.1600E+02
    -11.683  0.0000E+00  0.0000E+00  0.1600E+02  0.1600E+02
    -11.518  0.0000E+00  0.0000E+00  0.1600E+02  0.1600E+02
    -11.353  0.0000E+00  0.0000E+00  0.1600E+02  0.1600E+02
    -11.188  0.0000E+00  0.0000E+00  0.1600E+02  0.1600E+02
    -11.023  0.0000E+00  0.0000E+00  0.1600E+02  0.1600E+02
    -10.858  0.0000E+00  0.0000E+00  0.1600E+02  0.1600E+02
    -10.693  0.0000E+00  0.0000E+00  0.1600E+02  0.1600E+02
    -10.528  0.0000E+00  0.0000E+00  0.1600E+02  0.1600E+02
    -10.363  0.0000E+00  0.0000E+00  0.1600E+02  0.1600E+02
    -10.198  0.0000E+00  0.0000E+00  0.1600E+02  0.1600E+02
    -10.033  0.0000E+00  0.0000E+00  0.1600E+02  0.1600E+02
     -9.868  0.0000E+00  0.0000E+00  0.1600E+02  0.1600E+02
     -9.703  0.0000E+00  0.0000E+00  0.1600E+02  0.1600E+02
     -9.538  0.0000E+00  0.0000E+00  0.1600E+02  0.1600E+02
     -9.373  0.0000E+00  0.0000E+00  0.1600E+02  0.1600E+02
     -9.208  0.0000E+00  0.0000E+00  0.1600E+02  0.1600E+02
     -9.043  0.0000E+00  0.0000E+00  0.1600E+02  0.1600E+02
     -8.878  0.0000E+00  0.0000E+00  0.1600E+02  0.1600E+02
     -8.713  0.0000E+00  0.0000E+00  0.1600E+02  0.1600E+02
     -8.548  0.0000E+00  0.0000E+00  0.1600E+02  0.1600E+02
     -8.383  0.0000E+00  0.0000E+00  0.1600E+02  0.1600E+02
     -8.218  0.0000E+00  0.0000E+00  0.1600E+02  0.1600E+02
     -8.053  0.0000E+00  0.0000E+00  0.1600E+02  0.1600E+02
     -7.888  0.0000E+00  0.0000E+00  0.1600E+02  0.1600E+02
     -7.723  0.0000E+00  0.0000E+00  0.1600E+02  0.1600E+02
     -7.558  0.0000E+00  0.0000E+00  0.1600E+02  0.1600E+02
     -7.393  0.0000E+00  0.0000E+00  0.1600E+02  0.1600E+02
     -7.228  0.0000E+00  0.0000E+00  0.1600E+02  0.1600E+02
     -7.063  0.0000E+00  0.0000E+00  0.1600E+02  0.1600E+02
     -6.898  0.0000E+00  0.0000E+00  0.1600E+02  0.1600E+02
     -6.733  0.0000E+00  0.0000E+00  0.1600E+02  0.1600E+02
     -6.568  0.0000E+00  0.0000E+00  0.1600E+02  0.1600E+02
     -6.403  0.0000E+00  0.0000E+00  0.1600E+02  0.1600E+02
     -6.238  0.0000E+00  0.0000E+00  0.1600E+02  0.1600E+02
     -6.073  0.0000E+00  0.0000E+00  0.1600E+02  0.1600E+02
     -5.908  0.0000E+00  0.0000E+00  0.1600E+02  0.1600E+02
     -5.744  0.0000E+00  0.0000E+00  0.1600E+02  0.1600E+02
     -5.579  0.0000E+00  0.0000E+00  0.1600E+02  0.1600E+02
     -5.414  0.0000E+00  0.0000E+00  0.1600E+02  0.1600E+02
     -5.249  0.0000E+00  0.0000E+00  0.1600E+02  0.1600E+02
     -5.084  0.0000E+00  0.0000E+00  0.1600E+02  0.1600E+02
     -4.919  0.0000E+00  0.0000E+00  0.1600E+02  0.1600E+02
     -4.754  0.0000E+00  0.0000E+00  0.1600E+02  0.1600E+02
     -4.589  0.0000E+00  0.0000E+00  0.1600E+02  0.1600E+02
     -4.424  0.0000E+00  0.0000E+00  0.1600E+02  0.1600E+02
     -4.259  0.0000E+00  0.0000E+00  0.1600E+02  0.1600E+02
     -4.094  0.0000E+00  0.0000E+00  0.1600E+02  0.1600E+02
     -3.929  0.0000E+00  0.0000E+00  0.1600E+02  0.1600E+02
     -3.764  0.0000E+00  0.0000E+00  0.1600E+02  0.1600E+02
     -3.599  0.0000E+00  0.0000E+00  0.1600E+02  0.1600E+02
     -3.434  0.0000E+00  0.0000E+00  0.1600E+02  0.1600E+02
     -3.269  0.0000E+00  0.0000E+00  0.1600E+02  0.1600E+02
     -3.104  0.0000E+00  0.0000E+00  0.1600E+02  0.1600E+02
     -2.939  0.3068E-05  0.2975E-05  0.1600E+02  0.1600E+02
     -2.774  0.1078E-03  0.1046E-03  0.1600E+02  0.1600E+02
     -2.609  0.2857E-02  0.2773E-02  0.1600E+02  0.1600E+02
     -2.444  0.4823E-01  0.4727E-01  0.1601E+02  0.1601E+02
     -2.279  0.1989E+00  0.1975E+00  0.1604E+02  0.1604E+02
     -2.114  0.3305E+00  0.3296E+00  0.1610E+02  0.1610E+02
     -1.949  0.4284E+00  0.4275E+00  0.1617E+02  0.1617E+02
     -1.784  0.4985E+00  0.4977E+00  0.1625E+02  0.1625E+02
     -1.619  0.5875E+00  0.5872E+00  0.1635E+02  0.1634E+02
     -1.454  0.6479E+00  0.6469E+00  0.1645E+02  0.1645E+02
     -1.289  0.7334E+00  0.7330E+00  0.1657E+02  0.1657E+02
     -1.124  0.7715E+00  0.7701E+00  0.1670E+02  0.1670E+02
     -0.959  0.8760E+00  0.8774E+00  0.1685E+02  0.1685E+02
     -0.794  0.9099E+00  0.9085E+00  0.1700E+02  0.1700E+02
     -0.629  0.1021E+01  0.1020E+01  0.1717E+02  0.1716E+02
     -0.464  0.1073E+01  0.1072E+01  0.1734E+02  0.1734E+02
     -0.299  0.1169E+01  0.1167E+01  0.1754E+02  0.1753E+02
     -0.134  0.1272E+01  0.1273E+01  0.1775E+02  0.1775E+02
      0.031  0.1343E+01  0.1341E+01  0.1797E+02  0.1797E+02
      0.196  0.1553E+01  0.1553E+01  0.1823E+02  0.1822E+02
      0.361  0.1629E+01  0.1628E+01  0.1850E+02  0.1849E+02
      0.526  0.1651E+01  0.1652E+01  0.1877E+02  0.1877E+02
      0.691  0.1620E+01  0.1619E+01  0.1904E+02  0.1903E+02
      0.856  0.1721E+01  0.1717E+01  0.1932E+02  0.1932E+02
      1.021  0.2337E+01  0.2331E+01  0.1971E+02  0.1970E+02
      1.186  0.2750E+01  0.2749E+01  0.2016E+02  0.2016E+02
      1.351  0.2638E+01  0.2641E+01  0.2060E+02  0.2059E+02
      1.515  0.2629E+01  0.2628E+01  0.2103E+02  0.2103E+02
      1.680  0.3753E+01  0.3741E+01  0.2165E+02  0.2165E+02
      1.845  0.6004E+01  0.5998E+01  0.2264E+02  0.2264E+02
      2.010  0.5427E+01  0.5435E+01  0.2354E+02  0.2354E+02
      2.175  0.4499E+01  0.4503E+01  0.2429E+02  0.2428E+02
      2.340  0.4046E+01  0.4047E+01  0.2496E+02  0.2495E+02
      2.505  0.3702E+01  0.3701E+01  0.2557E+02  0.2557E+02
      2.670  0.3355E+01  0.3408E+01  0.2613E+02  0.2613E+02
      2.835  0.2967E+01  0.3062E+01  0.2662E+02  0.2664E+02
      3.000  0.2725E+01  0.2638E+01  0.2707E+02  0.2707E+02
      3.165  0.2696E+01  0.2702E+01  0.2751E+02  0.2752E+02
      3.330  0.2363E+01  0.2360E+01  0.2790E+02  0.2791E+02
      3.495  0.5356E+00  0.4890E+00  0.2799E+02  0.2799E+02
      3.660  0.2305E-01  0.3094E-01  0.2800E+02  0.2800E+02
      3.825  0.0000E+00  0.1732E-02  0.2800E+02  0.2800E+02
      3.990  0.0000E+00  0.0000E+00  0.2800E+02  0.2800E+02
      4.155  0.0000E+00  0.0000E+00  0.2800E+02  0.2800E+02
      4.320  0.0000E+00  0.0000E+00  0.2800E+02  0.2800E+02
      4.485  0.0000E+00  0.0000E+00  0.2800E+02  0.2800E+02
      4.650  0.0000E+00  0.0000E+00  0.2800E+02  0.2800E+02
      4.815  0.0000E+00  0.0000E+00  0.2800E+02  0.2800E+02
      4.980  0.0000E+00  0.0000E+00  0.2800E+02  0.2800E+02
      5.145  0.0000E+00  0.0000E+00  0.2800E+02  0.2800E+02
      5.310  0.0000E+00  0.0000E+00  0.2800E+02  0.2800E+02
      5.475  0.0000E+00  0.0000E+00  0.2800E+02  0.2800E+02
      5.640  0.0000E+00  0.0000E+00  0.2800E+02  0.2800E+02
      5.805  0.0000E+00  0.0000E+00  0.2800E+02  0.2800E+02
      5.80491000    -43.68833413  301      1.12867191      1.00000000
    -43.688  0.0000E+00  0.0000E+00  0.0000E+00  0.0000E+00  0.0000E+00  0.0000E+00  0.0000E+00  0.0000E+00  0.0000E+00  0.0000E+00  0.0000E+00  0.0000E+00  0.0000E+00  0.0000E+00  0.0000E+00  0.0000E+00  0.0000E+00  0.0000E+00
    -43.523  0.0000E+00  0.0000E+00  0.0000E+00  0.0000E+00  0.0000E+00  0.0000E+00  0.0000E+00  0.0000E+00  0.0000E+00  0.0000E+00  0.0000E+00  0.0000E+00  0.0000E+00  0.0000E+00  0.0000E+00  0.0000E+00  0.0000E+00  0.0000E+00
    -43.358  0.0000E+00  0.0000E+00  0.0000E+00  0.0000E+00  0.0000E+00  0.0000E+00  0.0000E+00  0.0000E+00  0.0000E+00  0.0000E+00  0.0000E+00  0.0000E+00  0.0000E+00  0.0000E+00  0.0000E+00  0.0000E+00  0.0000E+00  0.0000E+00
    -43.193  0.0000E+00  0.0000E+00  0.0000E+00  0.0000E+00  0.0000E+00  0.0000E+00  0.0000E+00  0.0000E+00  0.0000E+00  0.0000E+00  0.0000E+00  0.0000E+00  0.0000E+00  0.0000E+00  0.0000E+00  0.0000E+00  0.0000E+00  0.0000E+00
    -43.028  0.0000E+00  0.0000E+00  0.0000E+00  0.0000E+00  0.0000E+00  0.0000E+00  0.0000E+00  0.0000E+00  0.0000E+00  0.0000E+00  0.0000E+00  0.0000E+00  0.0000E+00  0.0000E+00  0.0000E+00  0.0000E+00  0.0000E+00  0.0000E+00
    -42.863  0.0000E+00  0.0000E+00  0.0000E+00  0.0000E+00  0.0000E+00  0.0000E+00  0.0000E+00  0.0000E+00  0.0000E+00  0.0000E+00  0.0000E+00  0.0000E+00  0.0000E+00  0.0000E+00  0.0000E+00  0.0000E+00  0.0000E+00  0.0000E+00
    -42.698  0.0000E+00  0.0000E+00  0.0000E+00  0.0000E+00  0.0000E+00  0.0000E+00  0.0000E+00  0.0000E+00  0.0000E+00  0.0000E+00  0.0000E+00  0.0000E+00  0.0000E+00  0.0000E+00  0.0000E+00  0.0000E+00  0.0000E+00  0.0000E+00
    -42.533  0.0000E+00  0.0000E+00  0.0000E+00  0.0000E+00  0.0000E+00  0.0000E+00  0.0000E+00  0.0000E+00  0.0000E+00  0.0000E+00  0.0000E+00  0.0000E+00  0.0000E+00  0.0000E+00  0.0000E+00  0.0000E+00  0.0000E+00  0.0000E+00
    -42.369  0.0000E+00  0.0000E+00  0.0000E+00  0.0000E+00  0.0000E+00  0.0000E+00  0.0000E+00  0.0000E+00  0.0000E+00  0.0000E+00  0.0000E+00  0.0000E+00  0.0000E+00  0.0000E+00  0.0000E+00  0.0000E+00  0.0000E+00  0.0000E+00
    -42.204  0.0000E+00  0.0000E+00  0.0000E+00  0.0000E+00  0.0000E+00  0.0000E+00  0.0000E+00  0.0000E+00  0.0000E+00  0.0000E+00  0.0000E+00  0.0000E+00  0.0000E+00  0.0000E+00  0.0000E+00  0.0000E+00  0.0000E+00  0.0000E+00
    -42.039  0.0000E+00  0.0000E+00  0.0000E+00  0.0000E+00  0.0000E+00  0.0000E+00  0.0000E+00  0.0000E+00  0.0000E+00  0.0000E+00  0.0000E+00  0.0000E+00  0.0000E+00  0.0000E+00  0.0000E+00  0.0000E+00  0.0000E+00  0.0000E+00
    -41.874  0.9156E-03  0.9142E-03  0.5726E-11  0.5703E-11  0.5726E-11  0.5703E-11  0.5726E-11  0.5703E-11  0.1993E-11  0.1976E-11  0.1993E-11  0.1976E-11  0.9889E-12  0.9717E-12  0.1993E-11  0.1976E-11  0.9889E-12  0.9717E-12
    -41.709  0.2380E-01  0.2376E-01  0.1488E-09  0.1482E-09  0.1488E-09  0.1482E-09  0.1488E-09  0.1482E-09  0.5181E-10  0.5136E-10  0.5181E-10  0.5136E-10  0.2571E-10  0.2526E-10  0.5181E-10  0.5136E-10  0.2571E-10  0.2526E-10
    -41.544  0.5798E+00  0.5790E+00  0.3621E-08  0.3607E-08  0.3621E-08  0.3607E-08  0.3621E-08  0.3607E-08  0.1262E-08  0.1252E-08  0.1262E-08  0.1252E-08  0.6272E-09  0.6164E-09  0.1262E-08  0.1252E-08  0.6272E-09  0.6164E-09
    -41.379  0.3898E+01  0.3897E+01  0.2408E-07  0.2402E-07  0.2408E-07  0.2402E-07  0.2408E-07  0.2402E-07  0.8487E-08  0.8426E-08  0.8487E-08  0.8426E-08  0.4263E-08  0.4194E-08  0.8487E-08  0.8426E-08  0.4263E-08  0.4194E-08
    -41.214  0.1407E+01  0.1408E+01  0.8581E-08  0.8569E-08  0.8581E-08  0.8569E-08  0.8581E-08  0.8569E-08  0.3062E-08  0.3044E-08  0.3062E-08  0.3044E-08  0.1558E-08  0.1534E-08  0.3062E-08  0.3044E-08  0.1558E-08  0.1534E-08
    -41.049  0.6892E-01  0.6903E-01  0.4190E-09  0.4185E-09  0.4190E-09  0.4185E-09  0.4190E-09  0.4185E-09  0.1500E-09  0.1492E-09  0.1500E-09  0.1492E-09  0.7659E-10  0.7547E-10  0.1500E-09  0.1492E-09  0.7659E-10  0.7547E-10
    -40.884  0.0000E+00  0.0000E+00  0.0000E+00  0.0000E+00  0.0000E+00  0.0000E+00  0.0000E+00  0.0000E+00  0.0000E+00  0.0000E+00  0.0000E+00  0.0000E+00  0.0000E+00  0.0000E+00  0.0000E+00  0.0000E+00  0.0000E+00  0.0000E+00
    -40.719  0.0000E+00  0.0000E+00  0.0000E+00  0.0000E+00  0.0000E+00  0.0000E+00  0.0000E+00  0.0000E+00  0.0000E+00  0.0000E+00  0.0000E+00  0.0000E+00  0.0000E+00  0.0000E+00  0.0000E+00  0.0000E+00  0.0000E+00  0.0000E+00
    -40.554  0.0000E+00  0.0000E+00  0.0000E+00  0.0000E+00  0.0000E+00  0.0000E+00  0.0000E+00  0.0000E+00  0.0000E+00  0.0000E+00  0.0000E+00  0.0000E+00  0.0000E+00  0.0000E+00  0.0000E+00  0.0000E+00  0.0000E+00  0.0000E+00
    -40.389  0.0000E+00  0.0000E+00  0.0000E+00  0.0000E+00  0.0000E+00  0.0000E+00  0.0000E+00  0.0000E+00  0.0000E+00  0.0000E+00  0.0000E+00  0.0000E+00  0.0000E+00  0.0000E+00  0.0000E+00  0.0000E+00  0.0000E+00  0.0000E+00
    -40.224  0.0000E+00  0.0000E+00  0.0000E+00  0.0000E+00  0.0000E+00  0.0000E+00  0.0000E+00  0.0000E+00  0.0000E+00  0.0000E+00  0.0000E+00  0.0000E+00  0.0000E+00  0.0000E+00  0.0000E+00  0.0000E+00  0.0000E+00  0.0000E+00
    -40.059  0.0000E+00  0.0000E+00  0.0000E+00  0.0000E+00  0.0000E+00  0.0000E+00  0.0000E+00  0.0000E+00  0.0000E+00  0.0000E+00  0.0000E+00  0.0000E+00  0.0000E+00  0.0000E+00  0.0000E+00  0.0000E+00  0.0000E+00  0.0000E+00
    -39.894  0.0000E+00  0.0000E+00  0.0000E+00  0.0000E+00  0.0000E+00  0.0000E+00  0.0000E+00  0.0000E+00  0.0000E+00  0.0000E+00  0.0000E+00  0.0000E+00  0.0000E+00  0.0000E+00  0.0000E+00  0.0000E+00  0.0000E+00  0.0000E+00
    -39.729  0.0000E+00  0.0000E+00  0.0000E+00  0.0000E+00  0.0000E+00  0.0000E+00  0.0000E+00  0.0000E+00  0.0000E+00  0.0000E+00  0.0000E+00  0.0000E+00  0.0000E+00  0.0000E+00  0.0000E+00  0.0000E+00  0.0000E+00  0.0000E+00
    -39.564  0.0000E+00  0.0000E+00  0.0000E+00  0.0000E+00  0.0000E+00  0.0000E+00  0.0000E+00  0.0000E+00  0.0000E+00  0.0000E+00  0.0000E+00  0.0000E+00  0.0000E+00  0.0000E+00  0.0000E+00  0.0000E+00  0.0000E+00  0.0000E+00
    -39.399  0.0000E+00  0.0000E+00  0.0000E+00  0.0000E+00  0.0000E+00  0.0000E+00  0.0000E+00  0.0000E+00  0.0000E+00  0.0000E+00  0.0000E+00  0.0000E+00  0.0000E+00  0.0000E+00  0.0000E+00  0.0000E+00  0.0000E+00  0.0000E+00
    -39.234  0.0000E+00  0.0000E+00  0.0000E+00  0.0000E+00  0.0000E+00  0.0000E+00  0.0000E+00  0.0000E+00  0.0000E+00  0.0000E+00  0.0000E+00  0.0000E+00  0.0000E+00  0.0000E+00  0.0000E+00  0.0000E+00  0.0000E+00  0.0000E+00
    -39.069  0.0000E+00  0.0000E+00  0.0000E+00  0.0000E+00  0.0000E+00  0.0000E+00  0.0000E+00  0.0000E+00  0.0000E+00  0.0000E+00  0.0000E+00  0.0000E+00  0.0000E+00  0.0000E+00  0.0000E+00  0.0000E+00  0.0000E+00  0.0000E+00
    -38.904  0.0000E+00  0.0000E+00  0.0000E+00  0.0000E+00  0.0000E+00  0.0000E+00  0.0000E+00  0.0000E+00  0.0000E+00  0.0000E+00  0.0000E+00  0.0000E+00  0.0000E+00  0.0000E+00  0.0000E+00  0.0000E+00  0.0000E+00  0.0000E+00
    -38.739  0.0000E+00  0.0000E+00  0.0000E+00  0.0000E+00  0.0000E+00  0.0000E+00  0.0000E+00  0.0000E+00  0.0000E+00  0.0000E+00  0.0000E+00  0.0000E+00  0.0000E+00  0.0000E+00  0.0000E+00  0.0000E+00  0.0000E+00  0.0000E+00
    -38.574  0.0000E+00  0.0000E+00  0.0000E+00  0.0000E+00  0.0000E+00  0.0000E+00  0.0000E+00  0.0000E+00  0.0000E+00  0.0000E+00  0.0000E+00  0.0000E+00  0.0000E+00  0.0000E+00  0.0000E+00  0.0000E+00  0.0000E+00  0.0000E+00
    -38.409  0.0000E+00  0.0000E+00  0.0000E+00  0.0000E+00  0.0000E+00  0.0000E+00  0.0000E+00  0.0000E+00  0.0000E+00  0.0000E+00  0.0000E+00  0.0000E+00  0.0000E+00  0.0000E+00  0.0000E+00  0.0000E+00  0.0000E+00  0.0000E+00
    -38.244  0.0000E+00  0.0000E+00  0.0000E+00  0.0000E+00  0.0000E+00  0.0000E+00  0.0000E+00  0.0000E+00  0.0000E+00  0.0000E+00  0.0000E+00  0.0000E+00  0.0000E+00  0.0000E+00  0.0000E+00  0.0000E+00  0.0000E+00  0.0000E+00
    -38.079  0.0000E+00  0.0000E+00  0.0000E+00  0.0000E+00  0.0000E+00  0.0000E+00  0.0000E+00  0.0000E+00  0.0000E+00  0.0000E+00  0.0000E+00  0.0000E+00  0.0000E+00  0.0000E+00  0.0000E+00  0.0000E+00  0.0000E+00  0.0000E+00
    -37.914  0.0000E+00  0.0000E+00  0.0000E+00  0.0000E+00  0.0000E+00  0.0000E+00  0.0000E+00  0.0000E+00  0.0000E+00  0.0000E+00  0.0000E+00  0.0000E+00  0.0000E+00  0.0000E+00  0.0000E+00  0.0000E+00  0.0000E+00  0.0000E+00
    -37.749  0.0000E+00  0.0000E+00  0.0000E+00  0.0000E+00  0.0000E+00  0.0000E+00  0.0000E+00  0.0000E+00  0.0000E+00  0.0000E+00  0.0000E+00  0.0000E+00  0.0000E+00  0.0000E+00  0.0000E+00  0.0000E+00  0.0000E+00  0.0000E+00
    -37.584  0.0000E+00  0.0000E+00  0.0000E+00  0.0000E+00  0.0000E+00  0.0000E+00  0.0000E+00  0.0000E+00  0.0000E+00  0.0000E+00  0.0000E+00  0.0000E+00  0.0000E+00  0.0000E+00  0.0000E+00  0.0000E+00  0.0000E+00  0.0000E+00
    -37.419  0.0000E+00  0.0000E+00  0.0000E+00  0.0000E+00  0.0000E+00  0.0000E+00  0.0000E+00  0.0000E+00  0.0000E+00  0.0000E+00  0.0000E+00  0.0000E+00  0.0000E+00  0.0000E+00  0.0000E+00  0.0000E+00  0.0000E+00  0.0000E+00
    -37.254  0.0000E+00  0.0000E+00  0.0000E+00  0.0000E+00  0.0000E+00  0.0000E+00  0.0000E+00  0.0000E+00  0.0000E+00  0.0000E+00  0.0000E+00  0.0000E+00  0.0000E+00  0.0000E+00  0.0000E+00  0.0000E+00  0.0000E+00  0.0000E+00
    -37.089  0.0000E+00  0.0000E+00  0.0000E+00  0.0000E+00  0.0000E+00  0.0000E+00  0.0000E+00  0.0000E+00  0.0000E+00  0.0000E+00  0.0000E+00  0.0000E+00  0.0000E+00  0.0000E+00  0.0000E+00  0.0000E+00  0.0000E+00  0.0000E+00
    -36.924  0.0000E+00  0.0000E+00  0.0000E+00  0.0000E+00  0.0000E+00  0.0000E+00  0.0000E+00  0.0000E+00  0.0000E+00  0.0000E+00  0.0000E+00  0.0000E+00  0.0000E+00  0.0000E+00  0.0000E+00  0.0000E+00  0.0000E+00  0.0000E+00
    -36.759  0.0000E+00  0.0000E+00  0.0000E+00  0.0000E+00  0.0000E+00  0.0000E+00  0.0000E+00  0.0000E+00  0.0000E+00  0.0000E+00  0.0000E+00  0.0000E+00  0.0000E+00  0.0000E+00  0.0000E+00  0.0000E+00  0.0000E+00  0.0000E+00
    -36.594  0.0000E+00  0.0000E+00  0.0000E+00  0.0000E+00  0.0000E+00  0.0000E+00  0.0000E+00  0.0000E+00  0.0000E+00  0.0000E+00  0.0000E+00  0.0000E+00  0.0000E+00  0.0000E+00  0.0000E+00  0.0000E+00  0.0000E+00  0.0000E+00
    -36.429  0.0000E+00  0.0000E+00  0.0000E+00  0.0000E+00  0.0000E+00  0.0000E+00  0.0000E+00  0.0000E+00  0.0000E+00  0.0000E+00  0.0000E+00  0.0000E+00  0.0000E+00  0.0000E+00  0.0000E+00  0.0000E+00  0.0000E+00  0.0000E+00
    -36.264  0.0000E+00  0.0000E+00  0.0000E+00  0.0000E+00  0.0000E+00  0.0000E+00  0.0000E+00  0.0000E+00  0.0000E+00  0.0000E+00  0.0000E+00  0.0000E+00  0.0000E+00  0.0000E+00  0.0000E+00  0.0000E+00  0.0000E+00  0.0000E+00
    -36.099  0.0000E+00  0.0000E+00  0.0000E+00  0.0000E+00  0.0000E+00  0.0000E+00  0.0000E+00  0.0000E+00  0.0000E+00  0.0000E+00  0.0000E+00  0.0000E+00  0.0000E+00  0.0000E+00  0.0000E+00  0.0000E+00  0.0000E+00  0.0000E+00
    -35.934  0.0000E+00  0.0000E+00  0.0000E+00  0.0000E+00  0.0000E+00  0.0000E+00  0.0000E+00  0.0000E+00  0.0000E+00  0.0000E+00  0.0000E+00  0.0000E+00  0.0000E+00  0.0000E+00  0.0000E+00  0.0000E+00  0.0000E+00  0.0000E+00
    -35.769  0.0000E+00  0.0000E+00  0.0000E+00  0.0000E+00  0.0000E+00  0.0000E+00  0.0000E+00  0.0000E+00  0.0000E+00  0.0000E+00  0.0000E+00  0.0000E+00  0.0000E+00  0.0000E+00  0.0000E+00  0.0000E+00  0.0000E+00  0.0000E+00
    -35.604  0.0000E+00  0.0000E+00  0.0000E+00  0.0000E+00  0.0000E+00  0.0000E+00  0.0000E+00  0.0000E+00  0.0000E+00  0.0000E+00  0.0000E+00  0.0000E+00  0.0000E+00  0.0000E+00  0.0000E+00  0.0000E+00  0.0000E+00  0.0000E+00
    -35.439  0.0000E+00  0.0000E+00  0.0000E+00  0.0000E+00  0.0000E+00  0.0000E+00  0.0000E+00  0.0000E+00  0.0000E+00  0.0000E+00  0.0000E+00  0.0000E+00  0.0000E+00  0.0000E+00  0.0000E+00  0.0000E+00  0.0000E+00  0.0000E+00