   4   4   1   0
  0.4097409E+02  0.5472551E-09  0.5472551E-09  0.5472551E-09  0.5000000E-15
  1.000000000000000E-004
  CAR 
 unknown system                          
      7.03364009    -42.10479856  301      2.07805768      1.00000000
    -42.105  0.0000E+00  0.0000E+00  0.0000E+00  0.0000E+00
    -41.941  0.0000E+00  0.0000E+00  0.0000E+00  0.0000E+00
    -41.777  0.0000E+00  0.0000E+00  0.0000E+00  0.0000E+00
    -41.613  0.0000E+00  0.0000E+00  0.0000E+00  0.0000E+00
    -41.450  0.0000E+00  0.0000E+00  0.0000E+00  0.0000E+00
    -41.286  0.0000E+00  0.0000E+00  0.0000E+00  0.0000E+00
    -41.122  0.0000E+00  0.0000E+00  0.0000E+00  0.0000E+00
    -40.958  0.0000E+00  0.0000E+00  0.0000E+00  0.0000E+00
    -40.794  0.0000E+00  0.0000E+00  0.0000E+00  0.0000E+00
    -40.631  0.0000E+00  0.0000E+00  0.0000E+00  0.0000E+00
    -40.467  0.0000E+00  0.0000E+00  0.0000E+00  0.0000E+00
    -40.303  0.3187E-02  0.3094E-02  0.5220E-03  0.5067E-03
    -40.139  0.8088E-01  0.7852E-01  0.1377E-01  0.1337E-01
    -39.975  0.1960E+01  0.1908E+01  0.3349E+00  0.3258E+00
    -39.812  0.1521E+02  0.1511E+02  0.2825E+01  0.2801E+01
    -39.648  0.6792E+01  0.6932E+01  0.3938E+01  0.3936E+01
    -39.484  0.3639E+00  0.3747E+00  0.3998E+01  0.3998E+01
    -39.320  0.0000E+00  0.0000E+00  0.4000E+01  0.4000E+01
    -39.156  0.0000E+00  0.0000E+00  0.4000E+01  0.4000E+01
    -38.993  0.0000E+00  0.0000E+00  0.4000E+01  0.4000E+01
    -38.829  0.0000E+00  0.0000E+00  0.4000E+01  0.4000E+01
    -38.665  0.0000E+00  0.0000E+00  0.4000E+01  0.4000E+01
    -38.501  0.0000E+00  0.0000E+00  0.4000E+01  0.4000E+01
    -38.338  0.0000E+00  0.0000E+00  0.4000E+01  0.4000E+01
    -38.174  0.0000E+00  0.0000E+00  0.4000E+01  0.4000E+01
    -38.010  0.0000E+00  0.0000E+00  0.4000E+01  0.4000E+01
    -37.846  0.0000E+00  0.0000E+00  0.4000E+01  0.4000E+01
    -37.682  0.0000E+00  0.0000E+00  0.4000E+01  0.4000E+01
    -37.519  0.0000E+00  0.0000E+00  0.4000E+01  0.4000E+01
    -37.355  0.0000E+00  0.0000E+00  0.4000E+01  0.4000E+01
    -37.191  0.0000E+00  0.0000E+00  0.4000E+01  0.4000E+01
    -37.027  0.0000E+00  0.0000E+00  0.4000E+01  0.4000E+01
    -36.863  0.0000E+00  0.0000E+00  0.4000E+01  0.4000E+01
    -36.700  0.0000E+00  0.0000E+00  0.4000E+01  0.4000E+01
    -36.536  0.0000E+00  0.0000E+00  0.4000E+01  0.4000E+01
    -36.372  0.0000E+00  0.0000E+00  0.4000E+01  0.4000E+01
    -36.208  0.0000E+00  0.0000E+00  0.4000E+01  0.4000E+01
    -36.044  0.0000E+00  0.0000E+00  0.4000E+01  0.4000E+01
    -35.881  0.0000E+00  0.0000E+00  0.4000E+01  0.4000E+01
    -35.717  0.0000E+00  0.0000E+00  0.4000E+01  0.4000E+01
    -35.553  0.0000E+00  0.0000E+00  0.4000E+01  0.4000E+01
    -35.389  0.0000E+00  0.0000E+00  0.4000E+01  0.4000E+01
    -35.225  0.0000E+00  0.0000E+00  0.4000E+01  0.4000E+01
    -35.062  0.0000E+00  0.0000E+00  0.4000E+01  0.4000E+01
    -34.898  0.0000E+00  0.0000E+00  0.4000E+01  0.4000E+01
    -34.734  0.0000E+00  0.0000E+00  0.4000E+01  0.4000E+01
    -34.570  0.0000E+00  0.0000E+00  0.4000E+01  0.4000E+01
    -34.406  0.0000E+00  0.0000E+00  0.4000E+01  0.4000E+01
    -34.243  0.0000E+00  0.0000E+00  0.4000E+01  0.4000E+01
    -34.079  0.0000E+00  0.0000E+00  0.4000E+01  0.4000E+01
    -33.915  0.0000E+00  0.0000E+00  0.4000E+01  0.4000E+01
    -33.751  0.0000E+00  0.0000E+00  0.4000E+01  0.4000E+01
    -33.587  0.0000E+00  0.0000E+00  0.4000E+01  0.4000E+01
    -33.424  0.0000E+00  0.0000E+00  0.4000E+01  0.4000E+01
    -33.260  0.0000E+00  0.0000E+00  0.4000E+01  0.4000E+01
    -33.096  0.0000E+00  0.0000E+00  0.4000E+01  0.4000E+01
    -32.932  0.0000E+00  0.0000E+00  0.4000E+01  0.4000E+01
    -32.768  0.0000E+00  0.0000E+00  0.4000E+01  0.4000E+01
    -32.605  0.0000E+00  0.0000E+00  0.4000E+01  0.4000E+01
    -32.441  0.0000E+00  0.0000E+00  0.4000E+01  0.4000E+01
    -32.277  0.0000E+00  0.0000E+00  0.4000E+01  0.4000E+01
    -32.113  0.0000E+00  0.0000E+00  0.4000E+01  0.4000E+01
    -31.950  0.0000E+00  0.0000E+00  0.4000E+01  0.4000E+01
    -31.786  0.0000E+00  0.0000E+00  0.4000E+01  0.4000E+01
    -31.622  0.0000E+00  0.0000E+00  0.4000E+01  0.4000E+01
    -31.458  0.0000E+00  0.0000E+00  0.4000E+01  0.4000E+01
    -31.294  0.0000E+00  0.0000E+00  0.4000E+01  0.4000E+01
    -31.131  0.0000E+00  0.0000E+00  0.4000E+01  0.4000E+01
    -30.967  0.0000E+00  0.0000E+00  0.4000E+01  0.4000E+01
    -30.803  0.0000E+00  0.0000E+00  0.4000E+01  0.4000E+01
    -30.639  0.0000E+00  0.0000E+00  0.4000E+01  0.4000E+01
    -30.475  0.0000E+00  0.0000E+00  0.4000E+01  0.4000E+01
    -30.312  0.0000E+00  0.0000E+00  0.4000E+01  0.4000E+01
    -30.148  0.0000E+00  0.0000E+00  0.4000E+01  0.4000E+01
    -29.984  0.0000E+00  0.0000E+00  0.4000E+01  0.4000E+01
    -29.820  0.0000E+00  0.0000E+00  0.4000E+01  0.4000E+01
    -29.656  0.0000E+00  0.0000E+00  0.4000E+01  0.4000E+01
    -29.493  0.0000E+00  0.0000E+00  0.4000E+01  0.4000E+01
    -29.329  0.0000E+00  0.0000E+00  0.4000E+01  0.4000E+01
    -29.165  0.0000E+00  0.0000E+00  0.4000E+01  0.4000E+01
    -29.001  0.0000E+00  0.0000E+00  0.4000E+01  0.4000E+01
    -28.837  0.0000E+00  0.0000E+00  0.4000E+01  0.4000E+01
    -28.674  0.0000E+00  0.0000E+00  0.4000E+01  0.4000E+01
    -28.510  0.0000E+00  0.0000E+00  0.4000E+01  0.4000E+01
    -28.346  0.0000E+00  0.0000E+00  0.4000E+01  0.4000E+01
    -28.182  0.0000E+00  0.0000E+00  0.4000E+01  0.4000E+01
    -28.018  0.0000E+00  0.0000E+00  0.4000E+01  0.4000E+01
    -27.855  0.0000E+00  0.0000E+00  0.4000E+01  0.4000E+01
    -27.691  0.0000E+00  0.0000E+00  0.4000E+01  0.4000E+01
    -27.527  0.0000E+00  0.0000E+00  0.4000E+01  0.4000E+01
    -27.363  0.0000E+00  0.0000E+00  0.4000E+01  0.4000E+01
    -27.199  0.0000E+00  0.0000E+00  0.4000E+01  0.4000E+01
    -27.036  0.0000E+00  0.0000E+00  0.4000E+01  0.4000E+01
    -26.872  0.0000E+00  0.0000E+00  0.4000E+01  0.4000E+01
    -26.708  0.0000E+00  0.0000E+00  0.4000E+01  0.4000E+01
    -26.544  0.0000E+00  0.0000E+00  0.4000E+01  0.4000E+01
    -26.380  0.0000E+00  0.0000E+00  0.4000E+01  0.4000E+01
    -26.217  0.0000E+00  0.0000E+00  0.4000E+01  0.4000E+01
    -26.053  0.0000E+00  0.0000E+00  0.4000E+01  0.4000E+01
    -25.889  0.0000E+00  0.0000E+00  0.4000E+01  0.4000E+01
    -25.725  0.0000E+00  0.0000E+00  0.4000E+01  0.4000E+01
    -25.562  0.0000E+00  0.0000E+00  0.4000E+01  0.4000E+01
    -25.398  0.0000E+00  0.0000E+00  0.4000E+01  0.4000E+01
    -25.234  0.0000E+00  0.0000E+00  0.4000E+01  0.4000E+01
    -25.070  0.0000E+00  0.0000E+00  0.4000E+01  0.4000E+01
    -24.906  0.0000E+00  0.0000E+00  0.4000E+01  0.4000E+01
    -24.743  0.0000E+00  0.0000E+00  0.4000E+01  0.4000E+01
    -24.579  0.0000E+00  0.0000E+00  0.4000E+01  0.4000E+01
    -24.415  0.0000E+00  0.0000E+00  0.4000E+01  0.4000E+01
    -24.251  0.0000E+00  0.0000E+00  0.4000E+01  0.4000E+01
    -24.087  0.0000E+00  0.0000E+00  0.4000E+01  0.4000E+01
    -23.924  0.0000E+00  0.0000E+00  0.4000E+01  0.4000E+01
    -23.760  0.0000E+00  0.0000E+00  0.4000E+01  0.4000E+01
    -23.596  0.0000E+00  0.0000E+00  0.4000E+01  0.4000E+01
    -23.432  0.0000E+00  0.0000E+00  0.4000E+01  0.4000E+01
    -23.268  0.0000E+00  0.0000E+00  0.4000E+01  0.4000E+01
    -23.105  0.0000E+00  0.0000E+00  0.4000E+01  0.4000E+01
    -22.941  0.0000E+00  0.0000E+00  0.4000E+01  0.4000E+01
    -22.777  0.0000E+00  0.0000E+00  0.4000E+01  0.4000E+01
    -22.613  0.0000E+00  0.0000E+00  0.4000E+01  0.4000E+01
    -22.449  0.0000E+00  0.0000E+00  0.4000E+01  0.4000E+01
    -22.286  0.0000E+00  0.0000E+00  0.4000E+01  0.4000E+01
    -22.122  0.0000E+00  0.0000E+00  0.4000E+01  0.4000E+01
    -21.958  0.0000E+00  0.0000E+00  0.4000E+01  0.4000E+01
    -21.794  0.0000E+00  0.0000E+00  0.4000E+01  0.4000E+01
    -21.630  0.0000E+00  0.0000E+00  0.4000E+01  0.4000E+01
    -21.467  0.1919E-03  0.1788E-03  0.4000E+01  0.4000E+01
    -21.303  0.1174E-01  0.1141E-01  0.4002E+01  0.4002E+01
    -21.139  0.3015E+00  0.2929E+00  0.4051E+01  0.4050E+01
    -20.975  0.6708E+01  0.6545E+01  0.5150E+01  0.5122E+01
    -20.811  0.4106E+02  0.4080E+02  0.1188E+02  0.1181E+02
    -20.648  0.2352E+02  0.2390E+02  0.1573E+02  0.1572E+02
    -20.484  0.1487E+01  0.1531E+01  0.1599E+02  0.1599E+02
    -20.320  0.0000E+00  0.0000E+00  0.1600E+02  0.1600E+02
    -20.156  0.0000E+00  0.0000E+00  0.1600E+02  0.1600E+02
    -19.993  0.0000E+00  0.0000E+00  0.1600E+02  0.1600E+02
    -19.829  0.0000E+00  0.0000E+00  0.1600E+02  0.1600E+02
    -19.665  0.0000E+00  0.0000E+00  0.1600E+02  0.1600E+02
    -19.501  0.0000E+00  0.0000E+00  0.1600E+02  0.1600E+02
    -19.337  0.0000E+00  0.0000E+00  0.1600E+02  0.1600E+02
    -19.174  0.0000E+00  0.0000E+00  0.1600E+02  0.1600E+02
    -19.010  0.0000E+00  0.0000E+00  0.1600E+02  0.1600E+02
    -18.846  0.0000E+00  0.0000E+00  0.1600E+02  0.1600E+02
    -18.682  0.0000E+00  0.0000E+00  0.1600E+02  0.1600E+02
    -18.518  0.0000E+00  0.0000E+00  0.1600E+02  0.1600E+02
    -18.355  0.0000E+00  0.0000E+00  0.1600E+02  0.1600E+02
    -18.191  0.0000E+00  0.0000E+00  0.1600E+02  0.1600E+02
    -18.027  0.0000E+00  0.0000E+00  0.1600E+02  0.1600E+02
    -17.863  0.0000E+00  0.0000E+00  0.1600E+02  0.1600E+02
    -17.699  0.0000E+00  0.0000E+00  0.1600E+02  0.1600E+02
    -17.536  0.0000E+00  0.0000E+00  0.1600E+02  0.1600E+02
    -17.372  0.0000E+00  0.0000E+00  0.1600E+02  0.1600E+02
    -17.208  0.0000E+00  0.0000E+00  0.1600E+02  0.1600E+02
    -17.044  0.0000E+00  0.0000E+00  0.1600E+02  0.1600E+02
    -16.880  0.0000E+00  0.0000E+00  0.1600E+02  0.1600E+02
    -16.717  0.0000E+00  0.0000E+00  0.1600E+02  0.1600E+02
    -16.553  0.0000E+00  0.0000E+00  0.1600E+02  0.1600E+02
    -16.389  0.0000E+00  0.0000E+00  0.1600E+02  0.1600E+02
    -16.225  0.0000E+00  0.0000E+00  0.1600E+02  0.1600E+02
    -16.061  0.0000E+00  0.0000E+00  0.1600E+02  0.1600E+02
    -15.898  0.0000E+00  0.0000E+00  0.1600E+02  0.1600E+02
    -15.734  0.0000E+00  0.0000E+00  0.1600E+02  0.1600E+02
    -15.570  0.0000E+00  0.0000E+00  0.1600E+02  0.1600E+02
    -15.406  0.0000E+00  0.0000E+00  0.1600E+02  0.1600E+02
    -15.242  0.0000E+00  0.0000E+00  0.1600E+02  0.1600E+02
    -15.079  0.0000E+00  0.0000E+00  0.1600E+02  0.1600E+02
    -14.915  0.0000E+00  0.0000E+00  0.1600E+02  0.1600E+02
    -14.751  0.0000E+00  0.0000E+00  0.1600E+02  0.1600E+02
    -14.587  0.0000E+00  0.0000E+00  0.1600E+02  0.1600E+02
    -14.423  0.0000E+00  0.0000E+00  0.1600E+02  0.1600E+02
    -14.260  0.0000E+00  0.0000E+00  0.1600E+02  0.1600E+02
    -14.096  0.0000E+00  0.0000E+00  0.1600E+02  0.1600E+02
    -13.932  0.0000E+00  0.0000E+00  0.1600E+02  0.1600E+02
    -13.768  0.0000E+00  0.0000E+00  0.1600E+02  0.1600E+02
    -13.605  0.0000E+00  0.0000E+00  0.1600E+02  0.1600E+02
    -13.441  0.0000E+00  0.0000E+00  0.1600E+02  0.1600E+02
    -13.277  0.0000E+00  0.0000E+00  0.1600E+02  0.1600E+02
    -13.113  0.0000E+00  0.0000E+00  0.1600E+02  0.1600E+02
    -12.949  0.0000E+00  0.0000E+00  0.1600E+02  0.1600E+02
    -12.786  0.0000E+00  0.0000E+00  0.1600E+02  0.1600E+02
    -12.622  0.0000E+00  0.0000E+00  0.1600E+02  0.1600E+02
    -12.458  0.0000E+00  0.0000E+00  0.1600E+02  0.1600E+02
    -12.294  0.0000E+00  0.0000E+00  0.1600E+02  0.1600E+02
    -12.130  0.0000E+00  0.0000E+00  0.1600E+02  0.1600E+02
    -11.967  0.0000E+00  0.0000E+00  0.1600E+02  0.1600E+02
    -11.803  0.0000E+00  0.0000E+00  0.1600E+02  0.1600E+02
    -11.639  0.0000E+00  0.0000E+00  0.1600E+02  0.1600E+02
    -11.475  0.0000E+00  0.0000E+00  0.1600E+02  0.1600E+02
    -11.311  0.0000E+00  0.0000E+00  0.1600E+02  0.1600E+02
    -11.148  0.0000E+00  0.0000E+00  0.1600E+02  0.1600E+02
    -10.984  0.0000E+00  0.0000E+00  0.1600E+02  0.1600E+02
    -10.820  0.0000E+00  0.0000E+00  0.1600E+02  0.1600E+02
    -10.656  0.0000E+00  0.0000E+00  0.1600E+02  0.1600E+02
    -10.492  0.0000E+00  0.0000E+00  0.1600E+02  0.1600E+02
    -10.329  0.0000E+00  0.0000E+00  0.1600E+02  0.1600E+02
    -10.165  0.0000E+00  0.0000E+00  0.1600E+02  0.1600E+02
    -10.001  0.0000E+00  0.0000E+00  0.1600E+02  0.1600E+02
     -9.837  0.0000E+00  0.0000E+00  0.1600E+02  0.1600E+02
     -9.673  0.0000E+00  0.0000E+00  0.1600E+02  0.1600E+02
     -9.510  0.0000E+00  0.0000E+00  0.1600E+02  0.1600E+02
     -9.346  0.0000E+00  0.0000E+00  0.1600E+02  0.1600E+02
     -9.182  0.0000E+00  0.0000E+00  0.1600E+02  0.1600E+02
     -9.018  0.0000E+00  0.0000E+00  0.1600E+02  0.1600E+02
     -8.854  0.0000E+00  0.0000E+00  0.1600E+02  0.1600E+02
     -8.691  0.0000E+00  0.0000E+00  0.1600E+02  0.1600E+02
     -8.527  0.0000E+00  0.0000E+00  0.1600E+02  0.1600E+02
     -8.363  0.0000E+00  0.0000E+00  0.1600E+02  0.1600E+02
     -8.199  0.0000E+00  0.0000E+00  0.1600E+02  0.1600E+02
     -8.035  0.0000E+00  0.0000E+00  0.1600E+02  0.1600E+02
     -7.872  0.0000E+00  0.0000E+00  0.1600E+02  0.1600E+02
     -7.708  0.0000E+00  0.0000E+00  0.1600E+02  0.1600E+02
     -7.544  0.0000E+00  0.0000E+00  0.1600E+02  0.1600E+02
     -7.380  0.0000E+00  0.0000E+00  0.1600E+02  0.1600E+02
     -7.217  0.0000E+00  0.0000E+00  0.1600E+02  0.1600E+02
     -7.053  0.0000E+00  0.0000E+00  0.1600E+02  0.1600E+02
     -6.889  0.0000E+00  0.0000E+00  0.1600E+02  0.1600E+02
     -6.725  0.0000E+00  0.0000E+00  0.1600E+02  0.1600E+02
     -6.561  0.0000E+00  0.0000E+00  0.1600E+02  0.1600E+02
     -6.398  0.0000E+00  0.0000E+00  0.1600E+02  0.1600E+02
     -6.234  0.0000E+00  0.0000E+00  0.1600E+02  0.1600E+02
     -6.070  0.0000E+00  0.0000E+00  0.1600E+02  0.1600E+02
     -5.906  0.0000E+00  0.0000E+00  0.1600E+02  0.1600E+02
     -5.742  0.0000E+00  0.0000E+00  0.1600E+02  0.1600E+02
     -5.579  0.0000E+00  0.0000E+00  0.1600E+02  0.1600E+02
     -5.415  0.0000E+00  0.0000E+00  0.1600E+02  0.1600E+02
     -5.251  0.0000E+00  0.0000E+00  0.1600E+02  0.1600E+02
     -5.087  0.0000E+00  0.0000E+00  0.1600E+02  0.1600E+02
     -4.923  0.0000E+00  0.0000E+00  0.1600E+02  0.1600E+02
     -4.760  0.0000E+00  0.0000E+00  0.1600E+02  0.1600E+02
     -4.596  0.0000E+00  0.0000E+00  0.1600E+02  0.1600E+02
     -4.432  0.0000E+00  0.0000E+00  0.1600E+02  0.1600E+02
     -4.268  0.0000E+00  0.0000E+00  0.1600E+02  0.1600E+02
     -4.104  0.0000E+00  0.0000E+00  0.1600E+02  0.1600E+02
     -3.941  0.0000E+00  0.0000E+00  0.1600E+02  0.1600E+02
     -3.777  0.0000E+00  0.0000E+00  0.1600E+02  0.1600E+02
     -3.613  0.0000E+00  0.0000E+00  0.1600E+02  0.1600E+02
     -3.449  0.0000E+00  0.0000E+00  0.1600E+02  0.1600E+02
     -3.285  0.0000E+00  0.0000E+00  0.1600E+02  0.1600E+02
     -3.122  0.0000E+00  0.0000E+00  0.1600E+02  0.1600E+02
     -2.958  0.0000E+00  0.0000E+00  0.1600E+02  0.1600E+02
     -2.794  0.0000E+00  0.0000E+00  0.1600E+02  0.1600E+02
     -2.630  0.0000E+00  0.0000E+00  0.1600E+02  0.1600E+02
     -2.466  0.1846E-05  0.1581E-05  0.1600E+02  0.1600E+02
     -2.303  0.6458E-04  0.5533E-04  0.1600E+02  0.1600E+02
     -2.139  0.1681E-02  0.1445E-02  0.1600E+02  0.1600E+02
     -1.975  0.2982E-01  0.2672E-01  0.1601E+02  0.1600E+02
     -1.811  0.1363E+00  0.1307E+00  0.1603E+02  0.1603E+02
     -1.647  0.2339E+00  0.2298E+00  0.1607E+02  0.1606E+02
     -1.484  0.3013E+00  0.2990E+00  0.1612E+02  0.1611E+02
     -1.320  0.3755E+00  0.3719E+00  0.1618E+02  0.1617E+02
     -1.156  0.4056E+00  0.4030E+00  0.1624E+02  0.1624E+02
     -0.992  0.4925E+00  0.4923E+00  0.1632E+02  0.1632E+02
     -0.829  0.5146E+00  0.5108E+00  0.1641E+02  0.1640E+02
     -0.665  0.5905E+00  0.5863E+00  0.1651E+02  0.1650E+02
     -0.501  0.6235E+00  0.6256E+00  0.1661E+02  0.1660E+02
     -0.337  0.6873E+00  0.6782E+00  0.1672E+02  0.1671E+02
     -0.173  0.7555E+00  0.7593E+00  0.1684E+02  0.1684E+02
     -0.010  0.7686E+00  0.7633E+00  0.1697E+02  0.1696E+02
      0.154  0.8983E+00  0.8971E+00  0.1712E+02  0.1711E+02
      0.318  0.9237E+00  0.9185E+00  0.1727E+02  0.1726E+02
      0.482  0.9735E+00  0.9705E+00  0.1743E+02  0.1742E+02
      0.646  0.1123E+01  0.1118E+01  0.1761E+02  0.1761E+02
      0.809  0.1144E+01  0.1147E+01  0.1780E+02  0.1779E+02
      0.973  0.1333E+01  0.1320E+01  0.1802E+02  0.1801E+02
      1.137  0.1472E+01  0.1474E+01  0.1826E+02  0.1825E+02
      1.301  0.1561E+01  0.1549E+01  0.1852E+02  0.1851E+02
      1.465  0.1607E+01  0.1610E+01  0.1878E+02  0.1877E+02
      1.628  0.1698E+01  0.1683E+01  0.1906E+02  0.1905E+02
      1.792  0.1729E+01  0.1728E+01  0.1934E+02  0.1933E+02
      1.956  0.2010E+01  0.1965E+01  0.1967E+02  0.1965E+02
      2.120  0.2776E+01  0.2763E+01  0.2013E+02  0.2011E+02
      2.284  0.2248E+01  0.2310E+01  0.2050E+02  0.2049E+02
      2.447  0.2182E+01  0.2182E+01  0.2086E+02  0.2084E+02
      2.611  0.3356E+01  0.3334E+01  0.2141E+02  0.2139E+02
      2.775  0.4631E+01  0.4636E+01  0.2217E+02  0.2215E+02
      2.939  0.4470E+01  0.4458E+01  0.2290E+02  0.2288E+02
      3.103  0.4803E+01  0.4793E+01  0.2369E+02  0.2367E+02
      3.266  0.4229E+01  0.4248E+01  0.2438E+02  0.2437E+02
      3.430  0.3577E+01  0.3588E+01  0.2497E+02  0.2496E+02
      3.594  0.3155E+01  0.3162E+01  0.2549E+02  0.2548E+02
      3.758  0.2851E+01  0.2863E+01  0.2596E+02  0.2595E+02
      3.922  0.2647E+01  0.2649E+01  0.2639E+02  0.2638E+02
      4.085  0.2361E+01  0.2363E+01  0.2678E+02  0.2677E+02
      4.249  0.2117E+01  0.2134E+01  0.2713E+02  0.2712E+02
      4.413  0.1837E+01  0.1998E+01  0.2743E+02  0.2745E+02
      4.577  0.2023E+01  0.2002E+01  0.2777E+02  0.2778E+02
      4.741  0.1260E+01  0.1162E+01  0.2797E+02  0.2797E+02
      4.904  0.1567E+00  0.1605E+00  0.2800E+02  0.2800E+02
      5.068  0.3067E-02  0.4909E-02  0.2800E+02  0.2800E+02
      5.232  0.0000E+00  0.0000E+00  0.2800E+02  0.2800E+02
      5.396  0.0000E+00  0.0000E+00  0.2800E+02  0.2800E+02
      5.559  0.0000E+00  0.0000E+00  0.2800E+02  0.2800E+02
      5.723  0.0000E+00  0.0000E+00  0.2800E+02  0.2800E+02
      5.887  0.0000E+00  0.0000E+00  0.2800E+02  0.2800E+02
      6.051  0.0000E+00  0.0000E+00  0.2800E+02  0.2800E+02
      6.215  0.0000E+00  0.0000E+00  0.2800E+02  0.2800E+02
      6.378  0.0000E+00  0.0000E+00  0.2800E+02  0.2800E+02
      6.542  0.0000E+00  0.0000E+00  0.2800E+02  0.2800E+02
      6.706  0.0000E+00  0.0000E+00  0.2800E+02  0.2800E+02
      6.870  0.0000E+00  0.0000E+00  0.2800E+02  0.2800E+02
      7.034  0.0000E+00  0.0000E+00  0.2800E+02  0.2800E+02
      7.03364009    -42.10479856  301      2.07805768      1.00000000
    -42.105  0.0000E+00  0.0000E+00  0.0000E+00  0.0000E+00  0.0000E+00  0.0000E+00  0.0000E+00  0.0000E+00  0.0000E+00  0.0000E+00  0.0000E+00  0.0000E+00  0.0000E+00  0.0000E+00  0.0000E+00  0.0000E+00  0.0000E+00  0.0000E+00
    -41.941  0.0000E+00  0.0000E+00  0.0000E+00  0.0000E+00  0.0000E+00  0.0000E+00  0.0000E+00  0.0000E+00  0.0000E+00  0.0000E+00  0.0000E+00  0.0000E+00  0.0000E+00  0.0000E+00  0.0000E+00  0.0000E+00  0.0000E+00  0.0000E+00
    -41.777  0.0000E+00  0.0000E+00  0.0000E+00  0.0000E+00  0.0000E+00  0.0000E+00  0.0000E+00  0.0000E+00  0.0000E+00  0.0000E+00  0.0000E+00  0.0000E+00  0.0000E+00  0.0000E+00  0.0000E+00  0.0000E+00  0.0000E+00  0.0000E+00
    -41.613  0.0000E+00  0.0000E+00  0.0000E+00  0.0000E+00  0.0000E+00  0.0000E+00  0.0000E+00  0.0000E+00  0.0000E+00  0.0000E+00  0.0000E+00  0.0000E+00  0.0000E+00  0.0000E+00  0.0000E+00  0.0000E+00  0.0000E+00  0.0000E+00
    -41.450  0.0000E+00  0.0000E+00  0.0000E+00  0.0000E+00  0.0000E+00  0.0000E+00  0.0000E+00  0.0000E+00  0.0000E+00  0.0000E+00  0.0000E+00  0.0000E+00  0.0000E+00  0.0000E+00  0.0000E+00  0.0000E+00  0.0000E+00  0.0000E+00
    -41.286  0.0000E+00  0.0000E+00  0.0000E+00  0.0000E+00  0.0000E+00  0.0000E+00  0.0000E+00  0.0000E+00  0.0000E+00  0.0000E+00  0.0000E+00  0.0000E+00  0.0000E+00  0.0000E+00  0.0000E+00  0.0000E+00  0.0000E+00  0.0000E+00
    -41.122  0.0000E+00  0.0000E+00  0.0000E+00  0.0000E+00  0.0000E+00  0.0000E+00  0.0000E+00  0.0000E+00  0.0000E+00  0.0000E+00  0.0000E+00  0.0000E+00  0.0000E+00  0.0000E+00  0.0000E+00  0.0000E+00  0.0000E+00  0.0000E+00
    -40.958  0.0000E+00  0.0000E+00  0.0000E+00  0.0000E+00  0.0000E+00  0.0000E+00  0.0000E+00  0.0000E+00  0.0000E+00  0.0000E+00  0.0000E+00  0.0000E+00  0.0000E+00  0.0000E+00  0.0000E+00  0.0000E+00  0.0000E+00  0.0000E+00
    -40.794  0.0000E+00  0.0000E+00  0.0000E+00  0.0000E+00  0.0000E+00  0.0000E+00  0.0000E+00  0.0000E+00  0.0000E+00  0.0000E+00  0.0000E+00  0.0000E+00  0.0000E+00  0.0000E+00  0.0000E+00  0.0000E+00  0.0000E+00  0.0000E+00
    -40.631  0.0000E+00  0.0000E+00  0.0000E+00  0.0000E+00  0.0000E+00  0.0000E+00  0.0000E+00  0.0000E+00  0.0000E+00  0.0000E+00  0.0000E+00  0.0000E+00  0.0000E+00  0.0000E+00  0.0000E+00  0.0000E+00  0.0000E+00  0.0000E+00
    -40.467  0.0000E+00  0.0000E+00  0.0000E+00  0.0000E+00  0.0000E+00  0.0000E+00  0.0000E+00  0.0000E+00  0.0000E+00  0.0000E+00  0.0000E+00  0.0000E+00  0.0000E+00  0.0000E+00  0.0000E+00  0.0000E+00  0.0000E+00  0.0000E+00
    -40.303  0.7860E-03  0.7629E-03  0.6771E-10  0.6580E-10  0.6771E-10  0.6580E-10  0.6771E-10  0.6580E-10  0.2315E-10  0.2253E-10  0.2315E-10  0.2253E-10  0.1092E-10  0.1066E-10  0.2315E-10  0.2253E-10  0.1092E-10  0.1066E-10
    -40.139  0.1995E-01  0.1936E-01  0.1718E-08  0.1670E-08  0.1718E-08  0.1670E-08  0.1718E-08  0.1670E-08  0.5876E-09  0.5718E-09  0.5876E-09  0.5718E-09  0.2772E-09  0.2706E-09  0.5876E-09  0.5718E-09  0.2772E-09  0.2706E-09
    -39.975  0.4834E+00  0.4705E+00  0.4146E-07  0.4040E-07  0.4146E-07  0.4040E-07  0.4146E-07  0.4040E-07  0.1425E-07  0.1390E-07  0.1425E-07  0.1390E-07  0.6750E-08  0.6605E-08  0.1425E-07  0.1390E-07  0.6750E-08  0.6605E-08
    -39.812  0.3750E+01  0.3726E+01  0.3101E-06  0.3086E-06  0.3101E-06  0.3086E-06  0.3101E-06  0.3086E-06  0.1108E-06  0.1104E-06  0.1108E-06  0.1104E-06  0.5440E-07  0.5433E-07  0.1108E-06  0.1104E-06  0.5440E-07  0.5433E-07
    -39.648  0.1675E+01  0.1710E+01  0.1321E-06  0.1351E-06  0.1321E-06  0.1351E-06  0.1321E-06  0.1351E-06  0.4943E-07  0.5058E-07  0.4943E-07  0.5058E-07  0.2542E-07  0.2607E-07  0.4943E-07  0.5058E-07  0.2542E-07  0.2607E-07
    -39.484  0.8974E-01  0.9241E-01  0.6973E-08  0.7188E-08  0.6973E-08  0.7188E-08  0.6973E-08  0.7188E-08  0.2644E-08  0.2730E-08  0.2644E-08  0.2730E-08  0.1381E-08  0.1429E-08  0.2644E-08  0.2730E-08  0.1381E-08  0.1429E-08
    -39.320  0.0000E+00  0.0000E+00  0.0000E+00  0.0000E+00  0.0000E+00  0.0000E+00  0.0000E+00  0.0000E+00  0.0000E+00  0.0000E+00  0.0000E+00  0.0000E+00  0.0000E+00  0.0000E+00  0.0000E+00  0.0000E+00  0.0000E+00  0.0000E+00
    -39.156  0.0000E+00  0.0000E+00  0.0000E+00  0.0000E+00  0.0000E+00  0.0000E+00  0.0000E+00  0.0000E+00  0.0000E+00  0.0000E+00  0.0000E+00  0.0000E+00  0.0000E+00  0.0000E+00  0.0000E+00  0.0000E+00  0.0000E+00  0.0000E+00
    -38.993  0.0000E+00  0.0000E+00  0.0000E+00  0.0000E+00  0.0000E+00  0.0000E+00  0.0000E+00  0.0000E+00  0.0000E+00  0.0000E+00  0.0000E+00  0.0000E+00  0.0000E+00  0.0000E+00  0.0000E+00  0.0000E+00  0.0000E+00  0.0000E+00
    -38.829  0.0000E+00  0.0000E+00  0.0000E+00  0.0000E+00  0.0000E+00  0.0000E+00  0.0000E+00  0.0000E+00  0.0000E+00  0.0000E+00  0.0000E+00  0.0000E+00  0.0000E+00  0.0000E+00  0.0000E+00  0.0000E+00  0.0000E+00  0.0000E+00
    -38.665  0.0000E+00  0.0000E+00  0.0000E+00  0.0000E+00  0.0000E+00  0.0000E+00  0.0000E+00  0.0000E+00  0.0000E+00  0.0000E+00  0.0000E+00  0.0000E+00  0.0000E+00  0.0000E+00  0.0000E+00  0.0000E+00  0.0000E+00  0.0000E+00
    -38.501  0.0000E+00  0.0000E+00  0.0000E+00  0.0000E+00  0.0000E+00  0.0000E+00  0.0000E+00  0.0000E+00  0.0000E+00  0.0000E+00  0.0000E+00  0.0000E+00  0.0000E+00  0.0000E+00  0.0000E+00  0.0000E+00  0.0000E+00  0.0000E+00
    -38.338  0.0000E+00  0.0000E+00  0.0000E+00  0.0000E+00  0.0000E+00  0.0000E+00  0.0000E+00  0.0000E+00  0.0000E+00  0.0000E+00  0.0000E+00  0.0000E+00  0.0000E+00  0.0000E+00  0.0000E+00  0.0000E+00  0.0000E+00  0.0000E+00
    -38.174  0.0000E+00  0.0000E+00  0.0000E+00  0.0000E+00  0.0000E+00  0.0000E+00  0.0000E+00  0.0000E+00  0.0000E+00  0.0000E+00  0.0000E+00  0.0000E+00  0.0000E+00  0.0000E+00  0.0000E+00  0.0000E+00  0.0000E+00  0.0000E+00
    -38.010  0.0000E+00  0.0000E+00  0.0000E+00  0.0000E+00  0.0000E+00  0.0000E+00  0.0000E+00  0.0000E+00  0.0000E+00  0.0000E+00  0.0000E+00  0.0000E+00  0.0000E+00  0.0000E+00  0.0000E+00  0.0000E+00  0.0000E+00  0.0000E+00
    -37.846  0.0000E+00  0.0000E+00  0.0000E+00  0.0000E+00  0.0000E+00  0.0000E+00  0.0000E+00  0.0000E+00  0.0000E+00  0.0000E+00  0.0000E+00  0.0000E+00  0.0000E+00  0.0000E+00  0.0000E+00  0.0000E+00  0.0000E+00  0.0000E+00
    -37.682  0.0000E+00  0.0000E+00  0.0000E+00  0.0000E+00  0.0000E+00  0.0000E+00  0.0000E+00  0.0000E+00  0.0000E+00  0.0000E+00  0.0000E+00  0.0000E+00  0.0000E+00  0.0000E+00  0.0000E+00  0.0000E+00  0.0000E+00  0.0000E+00
    -37.519  0.0000E+00  0.0000E+00  0.0000E+00  0.0000E+00  0.0000E+00  0.0000E+00  0.0000E+00  0.0000E+00  0.0000E+00  0.0000E+00  0.0000E+00  0.0000E+00  0.0000E+00  0.0000E+00  0.0000E+00  0.0000E+00  0.0000E+00  0.0000E+00
    -37.355  0.0000E+00  0.0000E+00  0.0000E+00  0.0000E+00  0.0000E+00  0.0000E+00  0.0000E+00  0.0000E+00  0.0000E+00  0.0000E+00  0.0000E+00  0.0000E+00  0.0000E+00  0.0000E+00  0.0000E+00  0.0000E+00  0.0000E+00  0.0000E+00
    -37.191  0.0000E+00  0.0000E+00  0.0000E+00  0.0000E+00  0.0000E+00  0.0000E+00  0.0000E+00  0.0000E+00  0.0000E+00  0.0000E+00  0.0000E+00  0.0000E+00  0.0000E+00  0.0000E+00  0.0000E+00  0.0000E+00  0.0000E+00  0.0000E+00
    -37.027  0.0000E+00  0.0000E+00  0.0000E+00  0.0000E+00  0.0000E+00  0.0000E+00  0.0000E+00  0.0000E+00  0.0000E+00  0.0000E+00  0.0000E+00  0.0000E+00  0.0000E+00  0.0000E+00  0.0000E+00  0.0000E+00  0.0000E+00  0.0000E+00
    -36.863  0.0000E+00  0.0000E+00  0.0000E+00  0.0000E+00  0.0000E+00  0.0000E+00  0.0000E+00  0.0000E+00  0.0000E+00  0.0000E+00  0.0000E+00  0.0000E+00  0.0000E+00  0.0000E+00  0.0000E+00  0.0000E+00  0.0000E+00  0.0000E+00
    -36.700  0.0000E+00  0.0000E+00  0.0000E+00  0.0000E+00  0.0000E+00  0.0000E+00  0.0000E+00  0.0000E+00  0.0000E+00  0.0000E+00  0.0000E+00  0.0000E+00  0.0000E+00  0.0000E+00  0.0000E+00  0.0000E+00  0.0000E+00  0.0000E+00
    -36.536  0.0000E+00  0.0000E+00  0.0000E+00  0.0000E+00  0.0000E+00  0.0000E+00  0.0000E+00  0.0000E+00  0.0000E+00  0.0000E+00  0.0000E+00  0.0000E+00  0.0000E+00  0.0000E+00  0.0000E+00  0.0000E+00  0.0000E+00  0.0000E+00
    -36.372  0.0000E+00  0.0000E+00  0.0000E+00  0.0000E+00  0.0000E+00  0.0000E+00  0.0000E+00  0.0000E+00  0.0000E+00  0.0000E+00  0.0000E+00  0.0000E+00  0.0000E+00  0.0000E+00  0.0000E+00  0.0000E+00  0.0000E+00  0.0000E+00
    -36.208  0.0000E+00  0.0000E+00  0.0000E+00  0.0000E+00  0.0000E+00  0.0000E+00  0.0000E+00  0.0000E+00  0.0000E+00  0.0000E+00  0.0000E+00  0.0000E+00  0.0000E+00  0.0000E+00  0.0000E+00  0.0000E+00  0.0000E+00  0.0000E+00
    -36.044  0.0000E+00  0.0000E+00  0.0000E+00  0.0000E+00  0.0000E+00  0.0000E+00  0.0000E+00  0.0000E+00  0.0000E+00  0.0000E+00  0.0000E+00  0.0000E+00  0.0000E+00  0.0000E+00  0.0000E+00  0.0000E+00  0.0000E+00  0.0000E+00
    -35.881  0.0000E+00  0.0000E+00  0.0000E+00  0.0000E+00  0.0000E+00  0.0000E+00  0.0000E+00  0.0000E+00  0.0000E+00  0.0000E+00  0.0000E+00  0.0000E+00  0.0000E+00  0.0000E+00  0.0000E+00  0.0000E+00  0.0000E+00  0.0000E+00
    -35.717  0.0000E+00  0.0000E+00  0.0000E+00  0.0000E+00  0.0000E+00  0.0000E+00  0.0000E+00  0.0000E+00  0.0000E+00  0.0000E+00  0.0000E+00  0.0000E+00  0.0000E+00  0.0000E+00  0.0000E+00  0.0000E+00  0.0000E+00  0.0000E+00
    -35.553  0.0000E+00  0.0000E+00  0.0000E+00  0.0000E+00  0.0000E+00  0.0000E+00  0.0000E+00  0.0000E+00  0.0000E+00  0.0000E+00  0.0000E+00  0.0000E+00  0.0000E+00  0.0000E+00  0.0000E+00  0.0000E+00  0.0000E+00  0.0000E+00
    -35.389  0.0000E+00  0.0000E+00  0.0000E+00  0.0000E+00  0.0000E+00  0.0000E+00  0.0000E+00  0.0000E+00  0.0000E+00  0.0000E+00  0.0000E+00  0.0000E+00  0.0000E+00  0.0000E+00  0.0000E+00  0.0000E+00  0.0000E+00  0.0000E+00
    -35.225  0.0000E+00  0.0000E+00  0.0000E+00  0.0000E+00  0.0000E+00  0.0000E+00  0.0000E+00  0.0000E+00  0.0000E+00  0.0000E+00  0.0000E+00  0.0000E+00  0.0000E+00  0.0000E+00  0.0000E+00  0.0000E+00  0.0000E+00  0.0000E+00
    -35.062  0.0000E+00  0.0000E+00  0.0000E+00  0.0000E+00  0.0000E+00  0.0000E+00  0.0000E+00  0.0000E+00  0.0000E+00  0.0000E+00  0.0000E+00  0.0000E+00  0.0000E+00  0.0000E+00  0.0000E+00  0.0000E+00  0.0000E+00  0.0000E+00
    -34.898  0.0000E+00  0.0000E+00  0.0000E+00  0.0000E+00  0.0000E+00  0.0000E+00  0.0000E+00  0.0000E+00  0.0000E+00  0.0000E+00  0.0000E+00  0.0000E+00  0.0000E+00  0.0000E+00  0.0000E+00  0.0000E+00  0.0000E+00  0.0000E+00
    -34.734  0.0000E+00  0.0000E+00  0.0000E+00  0.0000E+00  0.0000E+00  0.0000E+00  0.0000E+00  0.0000E+00  0.0000E+00  0.0000E+00  0.0000E+00  0.0000E+00  0.0000E+00  0.0000E+00  0.0000E+00  0.0000E+00  0.0000E+00  0.0000E+00
    -34.570  0.0000E+00  0.0000E+00  0.0000E+00  0.0000E+00  0.0000E+00  0.0000E+00  0.0000E+00  0.0000E+00  0.0000E+00  0.0000E+00  0.0000E+00  0.0000E+00  0.0000E+00  0.0000E+00  0.0000E+00  0.0000E+00  0.0000E+00  0.0000E+00
    -34.406  0.0000E+00  0.0000E+00  0.0000E+00  0.0000E+00  0.0000E+00  0.0000E+00  0.0000E+00  0.0000E+00  0.0000E+00  0.0000E+00  0.0000E+00  0.0000E+00  0.0000E+00  0.0000E+00  0.0000E+00  0.0000E+00  0.0000E+00  0.0000E+00
    -34.243  0.0000E+00  0.0000E+00  0.0000E+00  0.0000E+00  0.0000E+00  0.0000E+00  0.0000E+00  0.0000E+00  0.0000E+00  0.0000E+00  0.0000E+00  0.0000E+00  0.0000E+00  0.0000E+00  0.0000E+00  0.0000E+00  0.0000E+00  0.0000E+00
    -34.079  0.0000E+00  0.0000E+00  0.0000E+00  0.0000E+00  0.0000E+00  0.0000E+00  0.0000E+00  0.0000E+00  0.0000E+00  0.0000E+00  0.0000E+00  0.0000E+00  0.0000E+00  0.0000E+00  0.0000E+00  0.0000E+00  0.0000E+00  0.0000E+00
    -33.915  0.0000E+00  0.0000E+00  0.0000E+00  0.0000E+00  0.0000E+00  0.0000E+00  0.0000E+00  0.0000E+00  0.0000E+00  0.0000E+00  0.0000E+00  0.0000E+00  0.0000E+00  0.0000E+00  0.0000E+00  0.0000E+00  0.0000E+00  0.0000E+00