   4   4   1   0
  0.5620589E+02  0.6080612E-09  0.6080612E-09  0.6080612E-09  0.5000000E-15
  1.000000000000000E-004
  CAR 
 unknown system                          
      5.35925844    -43.98654069  301      0.95447704      1.00000000
    -43.987  0.0000E+00  0.0000E+00  0.0000E+00  0.0000E+00
    -43.822  0.0000E+00  0.0000E+00  0.0000E+00  0.0000E+00
    -43.658  0.0000E+00  0.0000E+00  0.0000E+00  0.0000E+00
    -43.493  0.0000E+00  0.0000E+00  0.0000E+00  0.0000E+00
    -43.329  0.0000E+00  0.0000E+00  0.0000E+00  0.0000E+00
    -43.164  0.0000E+00  0.0000E+00  0.0000E+00  0.0000E+00
    -43.000  0.0000E+00  0.0000E+00  0.0000E+00  0.0000E+00
    -42.835  0.0000E+00  0.0000E+00  0.0000E+00  0.0000E+00
    -42.671  0.0000E+00  0.0000E+00  0.0000E+00  0.0000E+00
    -42.506  0.0000E+00  0.0000E+00  0.0000E+00  0.0000E+00
    -42.342  0.0000E+00  0.0000E+00  0.0000E+00  0.0000E+00
    -42.177  0.3903E-02  0.3897E-02  0.6420E-03  0.6411E-03
    -42.013  0.1004E+00  0.1003E+00  0.1716E-01  0.1713E-01
    -41.848  0.2415E+01  0.2412E+01  0.4145E+00  0.4139E+00
    -41.684  0.1587E+02  0.1587E+02  0.3025E+01  0.3024E+01
    -41.519  0.5641E+01  0.5647E+01  0.3953E+01  0.3952E+01
    -41.355  0.2779E+00  0.2783E+00  0.3998E+01  0.3998E+01
    -41.190  0.0000E+00  0.0000E+00  0.4000E+01  0.4000E+01
    -41.026  0.0000E+00  0.0000E+00  0.4000E+01  0.4000E+01
    -40.861  0.0000E+00  0.0000E+00  0.4000E+01  0.4000E+01
    -40.697  0.0000E+00  0.0000E+00  0.4000E+01  0.4000E+01
    -40.532  0.0000E+00  0.0000E+00  0.4000E+01  0.4000E+01
    -40.368  0.0000E+00  0.0000E+00  0.4000E+01  0.4000E+01
    -40.203  0.0000E+00  0.0000E+00  0.4000E+01  0.4000E+01
    -40.039  0.0000E+00  0.0000E+00  0.4000E+01  0.4000E+01
    -39.874  0.0000E+00  0.0000E+00  0.4000E+01  0.4000E+01
    -39.710  0.0000E+00  0.0000E+00  0.4000E+01  0.4000E+01
    -39.545  0.0000E+00  0.0000E+00  0.4000E+01  0.4000E+01
    -39.381  0.0000E+00  0.0000E+00  0.4000E+01  0.4000E+01
    -39.216  0.0000E+00  0.0000E+00  0.4000E+01  0.4000E+01
    -39.052  0.0000E+00  0.0000E+00  0.4000E+01  0.4000E+01
    -38.887  0.0000E+00  0.0000E+00  0.4000E+01  0.4000E+01
    -38.723  0.0000E+00  0.0000E+00  0.4000E+01  0.4000E+01
    -38.559  0.0000E+00  0.0000E+00  0.4000E+01  0.4000E+01
    -38.394  0.0000E+00  0.0000E+00  0.4000E+01  0.4000E+01
    -38.230  0.0000E+00  0.0000E+00  0.4000E+01  0.4000E+01
    -38.065  0.0000E+00  0.0000E+00  0.4000E+01  0.4000E+01
    -37.901  0.0000E+00  0.0000E+00  0.4000E+01  0.4000E+01
    -37.736  0.0000E+00  0.0000E+00  0.4000E+01  0.4000E+01
    -37.572  0.0000E+00  0.0000E+00  0.4000E+01  0.4000E+01
    -37.407  0.0000E+00  0.0000E+00  0.4000E+01  0.4000E+01
    -37.243  0.0000E+00  0.0000E+00  0.4000E+01  0.4000E+01
    -37.078  0.0000E+00  0.0000E+00  0.4000E+01  0.4000E+01
    -36.914  0.0000E+00  0.0000E+00  0.4000E+01  0.4000E+01
    -36.749  0.0000E+00  0.0000E+00  0.4000E+01  0.4000E+01
    -36.585  0.0000E+00  0.0000E+00  0.4000E+01  0.4000E+01
    -36.420  0.0000E+00  0.0000E+00  0.4000E+01  0.4000E+01
    -36.256  0.0000E+00  0.0000E+00  0.4000E+01  0.4000E+01
    -36.091  0.0000E+00  0.0000E+00  0.4000E+01  0.4000E+01
    -35.927  0.0000E+00  0.0000E+00  0.4000E+01  0.4000E+01
    -35.762  0.0000E+00  0.0000E+00  0.4000E+01  0.4000E+01
    -35.598  0.0000E+00  0.0000E+00  0.4000E+01  0.4000E+01
    -35.433  0.0000E+00  0.0000E+00  0.4000E+01  0.4000E+01
    -35.269  0.0000E+00  0.0000E+00  0.4000E+01  0.4000E+01
    -35.104  0.0000E+00  0.0000E+00  0.4000E+01  0.4000E+01
    -34.940  0.0000E+00  0.0000E+00  0.4000E+01  0.4000E+01
    -34.775  0.0000E+00  0.0000E+00  0.4000E+01  0.4000E+01
    -34.611  0.0000E+00  0.0000E+00  0.4000E+01  0.4000E+01
    -34.446  0.0000E+00  0.0000E+00  0.4000E+01  0.4000E+01
    -34.282  0.0000E+00  0.0000E+00  0.4000E+01  0.4000E+01
    -34.117  0.0000E+00  0.0000E+00  0.4000E+01  0.4000E+01
    -33.953  0.0000E+00  0.0000E+00  0.4000E+01  0.4000E+01
    -33.788  0.0000E+00  0.0000E+00  0.4000E+01  0.4000E+01
    -33.624  0.0000E+00  0.0000E+00  0.4000E+01  0.4000E+01
    -33.459  0.0000E+00  0.0000E+00  0.4000E+01  0.4000E+01
    -33.295  0.0000E+00  0.0000E+00  0.4000E+01  0.4000E+01
    -33.130  0.0000E+00  0.0000E+00  0.4000E+01  0.4000E+01
    -32.966  0.0000E+00  0.0000E+00  0.4000E+01  0.4000E+01
    -32.801  0.0000E+00  0.0000E+00  0.4000E+01  0.4000E+01
    -32.637  0.0000E+00  0.0000E+00  0.4000E+01  0.4000E+01
    -32.473  0.0000E+00  0.0000E+00  0.4000E+01  0.4000E+01
    -32.308  0.0000E+00  0.0000E+00  0.4000E+01  0.4000E+01
    -32.144  0.0000E+00  0.0000E+00  0.4000E+01  0.4000E+01
    -31.979  0.0000E+00  0.0000E+00  0.4000E+01  0.4000E+01
    -31.815  0.0000E+00  0.0000E+00  0.4000E+01  0.4000E+01
    -31.650  0.0000E+00  0.0000E+00  0.4000E+01  0.4000E+01
    -31.486  0.0000E+00  0.0000E+00  0.4000E+01  0.4000E+01
    -31.321  0.0000E+00  0.0000E+00  0.4000E+01  0.4000E+01
    -31.157  0.0000E+00  0.0000E+00  0.4000E+01  0.4000E+01
    -30.992  0.0000E+00  0.0000E+00  0.4000E+01  0.4000E+01
    -30.828  0.0000E+00  0.0000E+00  0.4000E+01  0.4000E+01
    -30.663  0.0000E+00  0.0000E+00  0.4000E+01  0.4000E+01
    -30.499  0.0000E+00  0.0000E+00  0.4000E+01  0.4000E+01
    -30.334  0.0000E+00  0.0000E+00  0.4000E+01  0.4000E+01
    -30.170  0.0000E+00  0.0000E+00  0.4000E+01  0.4000E+01
    -30.005  0.0000E+00  0.0000E+00  0.4000E+01  0.4000E+01
    -29.841  0.0000E+00  0.0000E+00  0.4000E+01  0.4000E+01
    -29.676  0.0000E+00  0.0000E+00  0.4000E+01  0.4000E+01
    -29.512  0.0000E+00  0.0000E+00  0.4000E+01  0.4000E+01
    -29.347  0.0000E+00  0.0000E+00  0.4000E+01  0.4000E+01
    -29.183  0.0000E+00  0.0000E+00  0.4000E+01  0.4000E+01
    -29.018  0.0000E+00  0.0000E+00  0.4000E+01  0.4000E+01
    -28.854  0.0000E+00  0.0000E+00  0.4000E+01  0.4000E+01
    -28.689  0.0000E+00  0.0000E+00  0.4000E+01  0.4000E+01
    -28.525  0.0000E+00  0.0000E+00  0.4000E+01  0.4000E+01
    -28.360  0.0000E+00  0.0000E+00  0.4000E+01  0.4000E+01
    -28.196  0.0000E+00  0.0000E+00  0.4000E+01  0.4000E+01
    -28.031  0.0000E+00  0.0000E+00  0.4000E+01  0.4000E+01
    -27.867  0.0000E+00  0.0000E+00  0.4000E+01  0.4000E+01
    -27.702  0.0000E+00  0.0000E+00  0.4000E+01  0.4000E+01
    -27.538  0.0000E+00  0.0000E+00  0.4000E+01  0.4000E+01
    -27.373  0.0000E+00  0.0000E+00  0.4000E+01  0.4000E+01
    -27.209  0.0000E+00  0.0000E+00  0.4000E+01  0.4000E+01
    -27.044  0.0000E+00  0.0000E+00  0.4000E+01  0.4000E+01
    -26.880  0.0000E+00  0.0000E+00  0.4000E+01  0.4000E+01
    -26.716  0.0000E+00  0.0000E+00  0.4000E+01  0.4000E+01
    -26.551  0.0000E+00  0.0000E+00  0.4000E+01  0.4000E+01
    -26.387  0.0000E+00  0.0000E+00  0.4000E+01  0.4000E+01
    -26.222  0.0000E+00  0.0000E+00  0.4000E+01  0.4000E+01
    -26.058  0.0000E+00  0.0000E+00  0.4000E+01  0.4000E+01
    -25.893  0.0000E+00  0.0000E+00  0.4000E+01  0.4000E+01
    -25.729  0.0000E+00  0.0000E+00  0.4000E+01  0.4000E+01
    -25.564  0.0000E+00  0.0000E+00  0.4000E+01  0.4000E+01
    -25.400  0.0000E+00  0.0000E+00  0.4000E+01  0.4000E+01
    -25.235  0.0000E+00  0.0000E+00  0.4000E+01  0.4000E+01
    -25.071  0.0000E+00  0.0000E+00  0.4000E+01  0.4000E+01
    -24.906  0.0000E+00  0.0000E+00  0.4000E+01  0.4000E+01
    -24.742  0.0000E+00  0.0000E+00  0.4000E+01  0.4000E+01
    -24.577  0.0000E+00  0.0000E+00  0.4000E+01  0.4000E+01
    -24.413  0.0000E+00  0.0000E+00  0.4000E+01  0.4000E+01
    -24.248  0.0000E+00  0.0000E+00  0.4000E+01  0.4000E+01
    -24.084  0.0000E+00  0.0000E+00  0.4000E+01  0.4000E+01
    -23.919  0.0000E+00  0.0000E+00  0.4000E+01  0.4000E+01
    -23.755  0.0000E+00  0.0000E+00  0.4000E+01  0.4000E+01
    -23.590  0.0000E+00  0.0000E+00  0.4000E+01  0.4000E+01
    -23.426  0.0000E+00  0.0000E+00  0.4000E+01  0.4000E+01
    -23.261  0.4341E-03  0.4334E-03  0.4000E+01  0.4000E+01
    -23.097  0.2370E-01  0.2366E-01  0.4004E+01  0.4004E+01
    -22.932  0.6177E+00  0.6168E+00  0.4106E+01  0.4105E+01
    -22.768  0.1327E+02  0.1325E+02  0.6288E+01  0.6285E+01
    -22.603  0.4876E+02  0.4876E+02  0.1431E+02  0.1431E+02
    -22.439  0.9839E+01  0.9852E+01  0.1593E+02  0.1593E+02
    -22.274  0.0000E+00  0.0000E+00  0.1600E+02  0.1600E+02
    -22.110  0.0000E+00  0.0000E+00  0.1600E+02  0.1600E+02
    -21.945  0.0000E+00  0.0000E+00  0.1600E+02  0.1600E+02
    -21.781  0.0000E+00  0.0000E+00  0.1600E+02  0.1600E+02
    -21.616  0.0000E+00  0.0000E+00  0.1600E+02  0.1600E+02
    -21.452  0.0000E+00  0.0000E+00  0.1600E+02  0.1600E+02
    -21.287  0.0000E+00  0.0000E+00  0.1600E+02  0.1600E+02
    -21.123  0.0000E+00  0.0000E+00  0.1600E+02  0.1600E+02
    -20.959  0.0000E+00  0.0000E+00  0.1600E+02  0.1600E+02
    -20.794  0.0000E+00  0.0000E+00  0.1600E+02  0.1600E+02
    -20.630  0.0000E+00  0.0000E+00  0.1600E+02  0.1600E+02
    -20.465  0.0000E+00  0.0000E+00  0.1600E+02  0.1600E+02
    -20.301  0.0000E+00  0.0000E+00  0.1600E+02  0.1600E+02
    -20.136  0.0000E+00  0.0000E+00  0.1600E+02  0.1600E+02
    -19.972  0.0000E+00  0.0000E+00  0.1600E+02  0.1600E+02
    -19.807  0.0000E+00  0.0000E+00  0.1600E+02  0.1600E+02
    -19.643  0.0000E+00  0.0000E+00  0.1600E+02  0.1600E+02
    -19.478  0.0000E+00  0.0000E+00  0.1600E+02  0.1600E+02
    -19.314  0.0000E+00  0.0000E+00  0.1600E+02  0.1600E+02
    -19.149  0.0000E+00  0.0000E+00  0.1600E+02  0.1600E+02
    -18.985  0.0000E+00  0.0000E+00  0.1600E+02  0.1600E+02
    -18.820  0.0000E+00  0.0000E+00  0.1600E+02  0.1600E+02
    -18.656  0.0000E+00  0.0000E+00  0.1600E+02  0.1600E+02
    -18.491  0.0000E+00  0.0000E+00  0.1600E+02  0.1600E+02
    -18.327  0.0000E+00  0.0000E+00  0.1600E+02  0.1600E+02
    -18.162  0.0000E+00  0.0000E+00  0.1600E+02  0.1600E+02
    -17.998  0.0000E+00  0.0000E+00  0.1600E+02  0.1600E+02
    -17.833  0.0000E+00  0.0000E+00  0.1600E+02  0.1600E+02
    -17.669  0.0000E+00  0.0000E+00  0.1600E+02  0.1600E+02
    -17.504  0.0000E+00  0.0000E+00  0.1600E+02  0.1600E+02
    -17.340  0.0000E+00  0.0000E+00  0.1600E+02  0.1600E+02
    -17.175  0.0000E+00  0.0000E+00  0.1600E+02  0.1600E+02
    -17.011  0.0000E+00  0.0000E+00  0.1600E+02  0.1600E+02
    -16.846  0.0000E+00  0.0000E+00  0.1600E+02  0.1600E+02
    -16.682  0.0000E+00  0.0000E+00  0.1600E+02  0.1600E+02
    -16.517  0.0000E+00  0.0000E+00  0.1600E+02  0.1600E+02
    -16.353  0.0000E+00  0.0000E+00  0.1600E+02  0.1600E+02
    -16.188  0.0000E+00  0.0000E+00  0.1600E+02  0.1600E+02
    -16.024  0.0000E+00  0.0000E+00  0.1600E+02  0.1600E+02
    -15.859  0.0000E+00  0.0000E+00  0.1600E+02  0.1600E+02
    -15.695  0.0000E+00  0.0000E+00  0.1600E+02  0.1600E+02
    -15.530  0.0000E+00  0.0000E+00  0.1600E+02  0.1600E+02
    -15.366  0.0000E+00  0.0000E+00  0.1600E+02  0.1600E+02
    -15.201  0.0000E+00  0.0000E+00  0.1600E+02  0.1600E+02
    -15.037  0.0000E+00  0.0000E+00  0.1600E+02  0.1600E+02
    -14.873  0.0000E+00  0.0000E+00  0.1600E+02  0.1600E+02
    -14.708  0.0000E+00  0.0000E+00  0.1600E+02  0.1600E+02
    -14.544  0.0000E+00  0.0000E+00  0.1600E+02  0.1600E+02
    -14.379  0.0000E+00  0.0000E+00  0.1600E+02  0.1600E+02
    -14.215  0.0000E+00  0.0000E+00  0.1600E+02  0.1600E+02
    -14.050  0.0000E+00  0.0000E+00  0.1600E+02  0.1600E+02
    -13.886  0.0000E+00  0.0000E+00  0.1600E+02  0.1600E+02
    -13.721  0.0000E+00  0.0000E+00  0.1600E+02  0.1600E+02
    -13.557  0.0000E+00  0.0000E+00  0.1600E+02  0.1600E+02
    -13.392  0.0000E+00  0.0000E+00  0.1600E+02  0.1600E+02
    -13.228  0.0000E+00  0.0000E+00  0.1600E+02  0.1600E+02
    -13.063  0.0000E+00  0.0000E+00  0.1600E+02  0.1600E+02
    -12.899  0.0000E+00  0.0000E+00  0.1600E+02  0.1600E+02
    -12.734  0.0000E+00  0.0000E+00  0.1600E+02  0.1600E+02
    -12.570  0.0000E+00  0.0000E+00  0.1600E+02  0.1600E+02
    -12.405  0.0000E+00  0.0000E+00  0.1600E+02  0.1600E+02
    -12.241  0.0000E+00  0.0000E+00  0.1600E+02  0.1600E+02
    -12.076  0.0000E+00  0.0000E+00  0.1600E+02  0.1600E+02
    -11.912  0.0000E+00  0.0000E+00  0.1600E+02  0.1600E+02
    -11.747  0.0000E+00  0.0000E+00  0.1600E+02  0.1600E+02
    -11.583  0.0000E+00  0.0000E+00  0.1600E+02  0.1600E+02
    -11.418  0.0000E+00  0.0000E+00  0.1600E+02  0.1600E+02
    -11.254  0.0000E+00  0.0000E+00  0.1600E+02  0.1600E+02
    -11.089  0.0000E+00  0.0000E+00  0.1600E+02  0.1600E+02
    -10.925  0.0000E+00  0.0000E+00  0.1600E+02  0.1600E+02
    -10.760  0.0000E+00  0.0000E+00  0.1600E+02  0.1600E+02
    -10.596  0.0000E+00  0.0000E+00  0.1600E+02  0.1600E+02
    -10.431  0.0000E+00  0.0000E+00  0.1600E+02  0.1600E+02
    -10.267  0.0000E+00  0.0000E+00  0.1600E+02  0.1600E+02
    -10.102  0.0000E+00  0.0000E+00  0.1600E+02  0.1600E+02
     -9.938  0.0000E+00  0.0000E+00  0.1600E+02  0.1600E+02
     -9.773  0.0000E+00  0.0000E+00  0.1600E+02  0.1600E+02
     -9.609  0.0000E+00  0.0000E+00  0.1600E+02  0.1600E+02
     -9.444  0.0000E+00  0.0000E+00  0.1600E+02  0.1600E+02
     -9.280  0.0000E+00  0.0000E+00  0.1600E+02  0.1600E+02
     -9.116  0.0000E+00  0.0000E+00  0.1600E+02  0.1600E+02
     -8.951  0.0000E+00  0.0000E+00  0.1600E+02  0.1600E+02
     -8.787  0.0000E+00  0.0000E+00  0.1600E+02  0.1600E+02
     -8.622  0.0000E+00  0.0000E+00  0.1600E+02  0.1600E+02
     -8.458  0.0000E+00  0.0000E+00  0.1600E+02  0.1600E+02
     -8.293  0.0000E+00  0.0000E+00  0.1600E+02  0.1600E+02
     -8.129  0.0000E+00  0.0000E+00  0.1600E+02  0.1600E+02
     -7.964  0.0000E+00  0.0000E+00  0.1600E+02  0.1600E+02
     -7.800  0.0000E+00  0.0000E+00  0.1600E+02  0.1600E+02
     -7.635  0.0000E+00  0.0000E+00  0.1600E+02  0.1600E+02
     -7.471  0.0000E+00  0.0000E+00  0.1600E+02  0.1600E+02
     -7.306  0.0000E+00  0.0000E+00  0.1600E+02  0.1600E+02
     -7.142  0.0000E+00  0.0000E+00  0.1600E+02  0.1600E+02
     -6.977  0.0000E+00  0.0000E+00  0.1600E+02  0.1600E+02
     -6.813  0.0000E+00  0.0000E+00  0.1600E+02  0.1600E+02
     -6.648  0.0000E+00  0.0000E+00  0.1600E+02  0.1600E+02
     -6.484  0.0000E+00  0.0000E+00  0.1600E+02  0.1600E+02
     -6.319  0.0000E+00  0.0000E+00  0.1600E+02  0.1600E+02
     -6.155  0.0000E+00  0.0000E+00  0.1600E+02  0.1600E+02
     -5.990  0.0000E+00  0.0000E+00  0.1600E+02  0.1600E+02
     -5.826  0.0000E+00  0.0000E+00  0.1600E+02  0.1600E+02
     -5.661  0.0000E+00  0.0000E+00  0.1600E+02  0.1600E+02
     -5.497  0.0000E+00  0.0000E+00  0.1600E+02  0.1600E+02
     -5.332  0.0000E+00  0.0000E+00  0.1600E+02  0.1600E+02
     -5.168  0.0000E+00  0.0000E+00  0.1600E+02  0.1600E+02
     -5.003  0.0000E+00  0.0000E+00  0.1600E+02  0.1600E+02
     -4.839  0.0000E+00  0.0000E+00  0.1600E+02  0.1600E+02
     -4.674  0.0000E+00  0.0000E+00  0.1600E+02  0.1600E+02
     -4.510  0.0000E+00  0.0000E+00  0.1600E+02  0.1600E+02
     -4.345  0.0000E+00  0.0000E+00  0.1600E+02  0.1600E+02
     -4.181  0.0000E+00  0.0000E+00  0.1600E+02  0.1600E+02
     -4.016  0.0000E+00  0.0000E+00  0.1600E+02  0.1600E+02
     -3.852  0.0000E+00  0.0000E+00  0.1600E+02  0.1600E+02
     -3.687  0.0000E+00  0.0000E+00  0.1600E+02  0.1600E+02
     -3.523  0.0000E+00  0.0000E+00  0.1600E+02  0.1600E+02
     -3.358  0.0000E+00  0.0000E+00  0.1600E+02  0.1600E+02
     -3.194  0.0000E+00  0.0000E+00  0.1600E+02  0.1600E+02
     -3.030  0.2455E-05  0.2405E-05  0.1600E+02  0.1600E+02
     -2.865  0.8752E-04  0.8575E-04  0.1600E+02  0.1600E+02
     -2.701  0.2318E-02  0.2272E-02  0.1600E+02  0.1600E+02
     -2.536  0.4221E-01  0.4160E-01  0.1601E+02  0.1601E+02
     -2.372  0.1968E+00  0.1958E+00  0.1604E+02  0.1604E+02
     -2.207  0.3413E+00  0.3406E+00  0.1610E+02  0.1610E+02
     -2.043  0.4472E+00  0.4466E+00  0.1617E+02  0.1617E+02
     -1.878  0.5250E+00  0.5244E+00  0.1626E+02  0.1626E+02
     -1.714  0.6130E+00  0.6128E+00  0.1636E+02  0.1636E+02
     -1.549  0.6860E+00  0.6853E+00  0.1647E+02  0.1647E+02
     -1.385  0.7623E+00  0.7622E+00  0.1660E+02  0.1659E+02
     -1.220  0.8331E+00  0.8319E+00  0.1673E+02  0.1673E+02
     -1.056  0.8985E+00  0.8986E+00  0.1688E+02  0.1688E+02
     -0.891  0.9806E+00  0.9807E+00  0.1704E+02  0.1704E+02
     -0.727  0.1064E+01  0.1064E+01  0.1722E+02  0.1722E+02
     -0.562  0.1112E+01  0.1111E+01  0.1740E+02  0.1740E+02
     -0.398  0.1271E+01  0.1270E+01  0.1761E+02  0.1761E+02
     -0.233  0.1283E+01  0.1283E+01  0.1782E+02  0.1782E+02
     -0.069  0.1489E+01  0.1488E+01  0.1807E+02  0.1807E+02
      0.096  0.1606E+01  0.1606E+01  0.1833E+02  0.1833E+02
      0.260  0.1700E+01  0.1700E+01  0.1861E+02  0.1861E+02
      0.425  0.1644E+01  0.1644E+01  0.1888E+02  0.1888E+02
      0.589  0.1630E+01  0.1630E+01  0.1915E+02  0.1915E+02
      0.754  0.1963E+01  0.1959E+01  0.1948E+02  0.1947E+02
      0.918  0.2571E+01  0.2569E+01  0.1990E+02  0.1990E+02
      1.083  0.2797E+01  0.2799E+01  0.2036E+02  0.2036E+02
      1.247  0.2668E+01  0.2669E+01  0.2080E+02  0.2080E+02
      1.412  0.3055E+01  0.3050E+01  0.2130E+02  0.2130E+02
      1.576  0.5102E+01  0.5091E+01  0.2214E+02  0.2214E+02
      1.741  0.6125E+01  0.6129E+01  0.2315E+02  0.2315E+02
      1.905  0.4990E+01  0.4996E+01  0.2398E+02  0.2397E+02
      2.070  0.4343E+01  0.4346E+01  0.2469E+02  0.2469E+02
      2.234  0.3974E+01  0.3984E+01  0.2535E+02  0.2535E+02
      2.399  0.3669E+01  0.3672E+01  0.2595E+02  0.2595E+02
      2.563  0.3285E+01  0.3315E+01  0.2650E+02  0.2650E+02
      2.727  0.2814E+01  0.2992E+01  0.2696E+02  0.2699E+02
      2.892  0.2767E+01  0.2764E+01  0.2742E+02  0.2745E+02
      3.056  0.2676E+01  0.2611E+01  0.2786E+02  0.2788E+02
      3.221  0.8017E+00  0.6770E+00  0.2799E+02  0.2799E+02
      3.385  0.4384E-01  0.3002E-01  0.2800E+02  0.2800E+02
      3.550  0.0000E+00  0.0000E+00  0.2800E+02  0.2800E+02
      3.714  0.0000E+00  0.0000E+00  0.2800E+02  0.2800E+02
      3.879  0.0000E+00  0.0000E+00  0.2800E+02  0.2800E+02
      4.043  0.0000E+00  0.0000E+00  0.2800E+02  0.2800E+02
      4.208  0.0000E+00  0.0000E+00  0.2800E+02  0.2800E+02
      4.372  0.0000E+00  0.0000E+00  0.2800E+02  0.2800E+02
      4.537  0.0000E+00  0.0000E+00  0.2800E+02  0.2800E+02
      4.701  0.0000E+00  0.0000E+00  0.2800E+02  0.2800E+02
      4.866  0.0000E+00  0.0000E+00  0.2800E+02  0.2800E+02
      5.030  0.0000E+00  0.0000E+00  0.2800E+02  0.2800E+02
      5.195  0.0000E+00  0.0000E+00  0.2800E+02  0.2800E+02
      5.359  0.0000E+00  0.0000E+00  0.2800E+02  0.2800E+02
      5.35925844    -43.98654069  301      0.95447704      1.00000000
    -43.987  0.0000E+00  0.0000E+00  0.0000E+00  0.0000E+00  0.0000E+00  0.0000E+00  0.0000E+00  0.0000E+00  0.0000E+00  0.0000E+00  0.0000E+00  0.0000E+00  0.0000E+00  0.0000E+00  0.0000E+00  0.0000E+00  0.0000E+00  0.0000E+00
    -43.822  0.0000E+00  0.0000E+00  0.0000E+00  0.0000E+00  0.0000E+00  0.0000E+00  0.0000E+00  0.0000E+00  0.0000E+00  0.0000E+00  0.0000E+00  0.0000E+00  0.0000E+00  0.0000E+00  0.0000E+00  0.0000E+00  0.0000E+00  0.0000E+00
    -43.658  0.0000E+00  0.0000E+00  0.0000E+00  0.0000E+00  0.0000E+00  0.0000E+00  0.0000E+00  0.0000E+00  0.0000E+00  0.0000E+00  0.0000E+00  0.0000E+00  0.0000E+00  0.0000E+00  0.0000E+00  0.0000E+00  0.0000E+00  0.0000E+00
    -43.493  0.0000E+00  0.0000E+00  0.0000E+00  0.0000E+00  0.0000E+00  0.0000E+00  0.0000E+00  0.0000E+00  0.0000E+00  0.0000E+00  0.0000E+00  0.0000E+00  0.0000E+00  0.0000E+00  0.0000E+00  0.0000E+00  0.0000E+00  0.0000E+00
    -43.329  0.0000E+00  0.0000E+00  0.0000E+00  0.0000E+00  0.0000E+00  0.0000E+00  0.0000E+00  0.0000E+00  0.0000E+00  0.0000E+00  0.0000E+00  0.0000E+00  0.0000E+00  0.0000E+00  0.0000E+00  0.0000E+00  0.0000E+00  0.0000E+00
    -43.164  0.0000E+00  0.0000E+00  0.0000E+00  0.0000E+00  0.0000E+00  0.0000E+00  0.0000E+00  0.0000E+00  0.0000E+00  0.0000E+00  0.0000E+00  0.0000E+00  0.0000E+00  0.0000E+00  0.0000E+00  0.0000E+00  0.0000E+00  0.0000E+00
    -43.000  0.0000E+00  0.0000E+00  0.0000E+00  0.0000E+00  0.0000E+00  0.0000E+00  0.0000E+00  0.0000E+00  0.0000E+00  0.0000E+00  0.0000E+00  0.0000E+00  0.0000E+00  0.0000E+00  0.0000E+00  0.0000E+00  0.0000E+00  0.0000E+00
    -42.835  0.0000E+00  0.0000E+00  0.0000E+00  0.0000E+00  0.0000E+00  0.0000E+00  0.0000E+00  0.0000E+00  0.0000E+00  0.0000E+00  0.0000E+00  0.0000E+00  0.0000E+00  0.0000E+00  0.0000E+00  0.0000E+00  0.0000E+00  0.0000E+00
    -42.671  0.0000E+00  0.0000E+00  0.0000E+00  0.0000E+00  0.0000E+00  0.0000E+00  0.0000E+00  0.0000E+00  0.0000E+00  0.0000E+00  0.0000E+00  0.0000E+00  0.0000E+00  0.0000E+00  0.0000E+00  0.0000E+00  0.0000E+00  0.0000E+00
    -42.506  0.0000E+00  0.0000E+00  0.0000E+00  0.0000E+00  0.0000E+00  0.0000E+00  0.0000E+00  0.0000E+00  0.0000E+00  0.0000E+00  0.0000E+00  0.0000E+00  0.0000E+00  0.0000E+00  0.0000E+00  0.0000E+00  0.0000E+00  0.0000E+00
    -42.342  0.0000E+00  0.0000E+00  0.0000E+00  0.0000E+00  0.0000E+00  0.0000E+00  0.0000E+00  0.0000E+00  0.0000E+00  0.0000E+00  0.0000E+00  0.0000E+00  0.0000E+00  0.0000E+00  0.0000E+00  0.0000E+00  0.0000E+00  0.0000E+00
    -42.177  0.9628E-03  0.9614E-03  0.3381E-11  0.3370E-11  0.3381E-11  0.3370E-11  0.3381E-11  0.3370E-11  0.1125E-11  0.1114E-11  0.1125E-11  0.1114E-11  0.5633E-12  0.5504E-12  0.1125E-11  0.1114E-11  0.5633E-12  0.5504E-12
    -42.013  0.2477E-01  0.2473E-01  0.8696E-10  0.8670E-10  0.8696E-10  0.8670E-10  0.8696E-10  0.8670E-10  0.2894E-10  0.2865E-10  0.2894E-10  0.2865E-10  0.1449E-10  0.1416E-10  0.2894E-10  0.2865E-10  0.1449E-10  0.1416E-10
    -41.848  0.5959E+00  0.5951E+00  0.2090E-08  0.2084E-08  0.2090E-08  0.2084E-08  0.2090E-08  0.2084E-08  0.6963E-09  0.6894E-09  0.6963E-09  0.6894E-09  0.3490E-09  0.3411E-09  0.6963E-09  0.6894E-09  0.3490E-09  0.3411E-09
    -41.684  0.3915E+01  0.3914E+01  0.1362E-07  0.1359E-07  0.1362E-07  0.1359E-07  0.1362E-07  0.1359E-07  0.4576E-08  0.4536E-08  0.4576E-08  0.4536E-08  0.2312E-08  0.2261E-08  0.4576E-08  0.4536E-08  0.2312E-08  0.2261E-08
    -41.519  0.1391E+01  0.1393E+01  0.4795E-08  0.4792E-08  0.4795E-08  0.4792E-08  0.4795E-08  0.4792E-08  0.1627E-08  0.1614E-08  0.1627E-08  0.1614E-08  0.8295E-09  0.8122E-09  0.1627E-08  0.1614E-08  0.8295E-09  0.8122E-09
    -41.355  0.6855E-01  0.6864E-01  0.2356E-09  0.2355E-09  0.2356E-09  0.2355E-09  0.2356E-09  0.2355E-09  0.8013E-10  0.7956E-10  0.8013E-10  0.7956E-10  0.4097E-10  0.4013E-10  0.8013E-10  0.7956E-10  0.4097E-10  0.4013E-10
    -41.190  0.0000E+00  0.0000E+00  0.0000E+00  0.0000E+00  0.0000E+00  0.0000E+00  0.0000E+00  0.0000E+00  0.0000E+00  0.0000E+00  0.0000E+00  0.0000E+00  0.0000E+00  0.0000E+00  0.0000E+00  0.0000E+00  0.0000E+00  0.0000E+00
    -41.026  0.0000E+00  0.0000E+00  0.0000E+00  0.0000E+00  0.0000E+00  0.0000E+00  0.0000E+00  0.0000E+00  0.0000E+00  0.0000E+00  0.0000E+00  0.0000E+00  0.0000E+00  0.0000E+00  0.0000E+00  0.0000E+00  0.0000E+00  0.0000E+00
    -40.861  0.0000E+00  0.0000E+00  0.0000E+00  0.0000E+00  0.0000E+00  0.0000E+00  0.0000E+00  0.0000E+00  0.0000E+00  0.0000E+00  0.0000E+00  0.0000E+00  0.0000E+00  0.0000E+00  0.0000E+00  0.0000E+00  0.0000E+00  0.0000E+00
    -40.697  0.0000E+00  0.0000E+00  0.0000E+00  0.0000E+00  0.0000E+00  0.0000E+00  0.0000E+00  0.0000E+00  0.0000E+00  0.0000E+00  0.0000E+00  0.0000E+00  0.0000E+00  0.0000E+00  0.0000E+00  0.0000E+00  0.0000E+00  0.0000E+00
    -40.532  0.0000E+00  0.0000E+00  0.0000E+00  0.0000E+00  0.0000E+00  0.0000E+00  0.0000E+00  0.0000E+00  0.0000E+00  0.0000E+00  0.0000E+00  0.0000E+00  0.0000E+00  0.0000E+00  0.0000E+00  0.0000E+00  0.0000E+00  0.0000E+00
    -40.368  0.0000E+00  0.0000E+00  0.0000E+00  0.0000E+00  0.0000E+00  0.0000E+00  0.0000E+00  0.0000E+00  0.0000E+00  0.0000E+00  0.0000E+00  0.0000E+00  0.0000E+00  0.0000E+00  0.0000E+00  0.0000E+00  0.0000E+00  0.0000E+00
    -40.203  0.0000E+00  0.0000E+00  0.0000E+00  0.0000E+00  0.0000E+00  0.0000E+00  0.0000E+00  0.0000E+00  0.0000E+00  0.0000E+00  0.0000E+00  0.0000E+00  0.0000E+00  0.0000E+00  0.0000E+00  0.0000E+00  0.0000E+00  0.0000E+00
    -40.039  0.0000E+00  0.0000E+00  0.0000E+00  0.0000E+00  0.0000E+00  0.0000E+00  0.0000E+00  0.0000E+00  0.0000E+00  0.0000E+00  0.0000E+00  0.0000E+00  0.0000E+00  0.0000E+00  0.0000E+00  0.0000E+00  0.0000E+00  0.0000E+00
    -39.874  0.0000E+00  0.0000E+00  0.0000E+00  0.0000E+00  0.0000E+00  0.0000E+00  0.0000E+00  0.0000E+00  0.0000E+00  0.0000E+00  0.0000E+00  0.0000E+00  0.0000E+00  0.0000E+00  0.0000E+00  0.0000E+00  0.0000E+00  0.0000E+00
    -39.710  0.0000E+00  0.0000E+00  0.0000E+00  0.0000E+00  0.0000E+00  0.0000E+00  0.0000E+00  0.0000E+00  0.0000E+00  0.0000E+00  0.0000E+00  0.0000E+00  0.0000E+00  0.0000E+00  0.0000E+00  0.0000E+00  0.0000E+00  0.0000E+00
    -39.545  0.0000E+00  0.0000E+00  0.0000E+00  0.0000E+00  0.0000E+00  0.0000E+00  0.0000E+00  0.0000E+00  0.0000E+00  0.0000E+00  0.0000E+00  0.0000E+00  0.0000E+00  0.0000E+00  0.0000E+00  0.0000E+00  0.0000E+00  0.0000E+00
    -39.381  0.0000E+00  0.0000E+00  0.0000E+00  0.0000E+00  0.0000E+00  0.0000E+00  0.0000E+00  0.0000E+00  0.0000E+00  0.0000E+00  0.0000E+00  0.0000E+00  0.0000E+00  0.0000E+00  0.0000E+00  0.0000E+00  0.0000E+00  0.0000E+00
    -39.216  0.0000E+00  0.0000E+00  0.0000E+00  0.0000E+00  0.0000E+00  0.0000E+00  0.0000E+00  0.0000E+00  0.0000E+00  0.0000E+00  0.0000E+00  0.0000E+00  0.0000E+00  0.0000E+00  0.0000E+00  0.0000E+00  0.0000E+00  0.0000E+00
    -39.052  0.0000E+00  0.0000E+00  0.0000E+00  0.0000E+00  0.0000E+00  0.0000E+00  0.0000E+00  0.0000E+00  0.0000E+00  0.0000E+00  0.0000E+00  0.0000E+00  0.0000E+00  0.0000E+00  0.0000E+00  0.0000E+00  0.0000E+00  0.0000E+00
    -38.887  0.0000E+00  0.0000E+00  0.0000E+00  0.0000E+00  0.0000E+00  0.0000E+00  0.0000E+00  0.0000E+00  0.0000E+00  0.0000E+00  0.0000E+00  0.0000E+00  0.0000E+00  0.0000E+00  0.0000E+00  0.0000E+00  0.0000E+00  0.0000E+00
    -38.723  0.0000E+00  0.0000E+00  0.0000E+00  0.0000E+00  0.0000E+00  0.0000E+00  0.0000E+00  0.0000E+00  0.0000E+00  0.0000E+00  0.0000E+00  0.0000E+00  0.0000E+00  0.0000E+00  0.0000E+00  0.0000E+00  0.0000E+00  0.0000E+00
    -38.559  0.0000E+00  0.0000E+00  0.0000E+00  0.0000E+00  0.0000E+00  0.0000E+00  0.0000E+00  0.0000E+00  0.0000E+00  0.0000E+00  0.0000E+00  0.0000E+00  0.0000E+00  0.0000E+00  0.0000E+00  0.0000E+00  0.0000E+00  0.0000E+00
    -38.394  0.0000E+00  0.0000E+00  0.0000E+00  0.0000E+00  0.0000E+00  0.0000E+00  0.0000E+00  0.0000E+00  0.0000E+00  0.0000E+00  0.0000E+00  0.0000E+00  0.0000E+00  0.0000E+00  0.0000E+00  0.0000E+00  0.0000E+00  0.0000E+00
    -38.230  0.0000E+00  0.0000E+00  0.0000E+00  0.0000E+00  0.0000E+00  0.0000E+00  0.0000E+00  0.0000E+00  0.0000E+00  0.0000E+00  0.0000E+00  0.0000E+00  0.0000E+00  0.0000E+00  0.0000E+00  0.0000E+00  0.0000E+00  0.0000E+00
    -38.065  0.0000E+00  0.0000E+00  0.0000E+00  0.0000E+00  0.0000E+00  0.0000E+00  0.0000E+00  0.0000E+00  0.0000E+00  0.0000E+00  0.0000E+00  0.0000E+00  0.0000E+00  0.0000E+00  0.0000E+00  0.0000E+00  0.0000E+00  0.0000E+00
    -37.901  0.0000E+00  0.0000E+00  0.0000E+00  0.0000E+00  0.0000E+00  0.0000E+00  0.0000E+00  0.0000E+00  0.0000E+00  0.0000E+00  0.0000E+00  0.0000E+00  0.0000E+00  0.0000E+00  0.0000E+00  0.0000E+00  0.0000E+00  0.0000E+00
    -37.736  0.0000E+00  0.0000E+00  0.0000E+00  0.0000E+00  0.0000E+00  0.0000E+00  0.0000E+00  0.0000E+00  0.0000E+00  0.0000E+00  0.0000E+00  0.0000E+00  0.0000E+00  0.0000E+00  0.0000E+00  0.0000E+00  0.0000E+00  0.0000E+00
    -37.572  0.0000E+00  0.0000E+00  0.0000E+00  0.0000E+00  0.0000E+00  0.0000E+00  0.0000E+00  0.0000E+00  0.0000E+00  0.0000E+00  0.0000E+00  0.0000E+00  0.0000E+00  0.0000E+00  0.0000E+00  0.0000E+00  0.0000E+00  0.0000E+00
    -37.407  0.0000E+00  0.0000E+00  0.0000E+00  0.0000E+00  0.0000E+00  0.0000E+00  0.0000E+00  0.0000E+00  0.0000E+00  0.0000E+00  0.0000E+00  0.0000E+00  0.0000E+00  0.0000E+00  0.0000E+00  0.0000E+00  0.0000E+00  0.0000E+00
    -37.243  0.0000E+00  0.0000E+00  0.0000E+00  0.0000E+00  0.0000E+00  0.0000E+00  0.0000E+00  0.0000E+00  0.0000E+00  0.0000E+00  0.0000E+00  0.0000E+00  0.0000E+00  0.0000E+00  0.0000E+00  0.0000E+00  0.0000E+00  0.0000E+00
    -37.078  0.0000E+00  0.0000E+00  0.0000E+00  0.0000E+00  0.0000E+00  0.0000E+00  0.0000E+00  0.0000E+00  0.0000E+00  0.0000E+00  0.0000E+00  0.0000E+00  0.0000E+00  0.0000E+00  0.0000E+00  0.0000E+00  0.0000E+00  0.0000E+00
    -36.914  0.0000E+00  0.0000E+00  0.0000E+00  0.0000E+00  0.0000E+00  0.0000E+00  0.0000E+00  0.0000E+00  0.0000E+00  0.0000E+00  0.0000E+00  0.0000E+00  0.0000E+00  0.0000E+00  0.0000E+00  0.0000E+00  0.0000E+00  0.0000E+00
    -36.749  0.0000E+00  0.0000E+00  0.0000E+00  0.0000E+00  0.0000E+00  0.0000E+00  0.0000E+00  0.0000E+00  0.0000E+00  0.0000E+00  0.0000E+00  0.0000E+00  0.0000E+00  0.0000E+00  0.0000E+00  0.0000E+00  0.0000E+00  0.0000E+00
    -36.585  0.0000E+00  0.0000E+00  0.0000E+00  0.0000E+00  0.0000E+00  0.0000E+00  0.0000E+00  0.0000E+00  0.0000E+00  0.0000E+00  0.0000E+00  0.0000E+00  0.0000E+00  0.0000E+00  0.0000E+00  0.0000E+00  0.0000E+00  0.0000E+00
    -36.420  0.0000E+00  0.0000E+00  0.0000E+00  0.0000E+00  0.0000E+00  0.0000E+00  0.0000E+00  0.0000E+00  0.0000E+00  0.0000E+00  0.0000E+00  0.0000E+00  0.0000E+00  0.0000E+00  0.0000E+00  0.0000E+00  0.0000E+00  0.0000E+00
    -36.256  0.0000E+00  0.0000E+00  0.0000E+00  0.0000E+00  0.0000E+00  0.0000E+00  0.0000E+00  0.0000E+00  0.0000E+00  0.0000E+00  0.0000E+00  0.0000E+00  0.0000E+00  0.0000E+00  0.0000E+00  0.0000E+00  0.0000E+00  0.0000E+00
    -36.091  0.0000E+00  0.0000E+00  0.0000E+00  0.0000E+00  0.0000E+00  0.0000E+00  0.0000E+00  0.0000E+00  0.0000E+00  0.0000E+00  0.0000E+00  0.0000E+00  0.0000E+00  0.0000E+00  0.0000E+00  0.0000E+00  0.0000E+00  0.0000E+00
    -35.927  0.0000E+00  0.0000E+00  0.0000E+00  0.0000E+00  0.0000E+00  0.0000E+00  0.0000E+00  0.0000E+00  0.0000E+00  0.0000E+00  0.0000E+00  0.0000E+00  0.0000E+00  0.0000E+00  0.0000E+00  0.0000E+00  0.0000E+00  0.0000E+00
    -35.762  0.0000E+00  0.0000E+00  0.0000E+00  0.0000E+00  0.0000E+00  0.0000E+00  0.0000E+00  0.0000E+00  0.0000E+00  0.0000E+00  0.0000E+00  0.0000E+00  0.0000E+00  0.0000E+00  0.0000E+00  0.0000E+00  0.0000E+00  0.0000E+00