   4   4   1   0
  0.3182204E+02  0.5030324E-09  0.5030324E-09  0.5030324E-09  0.5000000E-15
  1.000000000000000E-004
  CAR 
 unknown system                          
      8.62013031    -40.41242065  301      3.24826681      1.00000000
    -40.412  0.0000E+00  0.0000E+00  0.0000E+00  0.0000E+00
    -40.249  0.0000E+00  0.0000E+00  0.0000E+00  0.0000E+00
    -40.086  0.0000E+00  0.0000E+00  0.0000E+00  0.0000E+00
    -39.922  0.0000E+00  0.0000E+00  0.0000E+00  0.0000E+00
    -39.759  0.0000E+00  0.0000E+00  0.0000E+00  0.0000E+00
    -39.595  0.0000E+00  0.0000E+00  0.0000E+00  0.0000E+00
    -39.432  0.0000E+00  0.0000E+00  0.0000E+00  0.0000E+00
    -39.268  0.0000E+00  0.0000E+00  0.0000E+00  0.0000E+00
    -39.105  0.0000E+00  0.0000E+00  0.0000E+00  0.0000E+00
    -38.941  0.0000E+00  0.0000E+00  0.0000E+00  0.0000E+00
    -38.778  0.0000E+00  0.0000E+00  0.0000E+00  0.0000E+00
    -38.615  0.1729E-02  0.1740E-02  0.2826E-03  0.2844E-03
    -38.451  0.4363E-01  0.4391E-01  0.7413E-02  0.7461E-02
    -38.288  0.1088E+01  0.1095E+01  0.1852E+00  0.1864E+00
    -38.124  0.1232E+02  0.1235E+02  0.2198E+01  0.2204E+01
    -37.961  0.1026E+02  0.1023E+02  0.3876E+01  0.3876E+01
    -37.797  0.7307E+00  0.7262E+00  0.3995E+01  0.3995E+01
    -37.634  0.0000E+00  0.0000E+00  0.4000E+01  0.4000E+01
    -37.470  0.0000E+00  0.0000E+00  0.4000E+01  0.4000E+01
    -37.307  0.0000E+00  0.0000E+00  0.4000E+01  0.4000E+01
    -37.144  0.0000E+00  0.0000E+00  0.4000E+01  0.4000E+01
    -36.980  0.0000E+00  0.0000E+00  0.4000E+01  0.4000E+01
    -36.817  0.0000E+00  0.0000E+00  0.4000E+01  0.4000E+01
    -36.653  0.0000E+00  0.0000E+00  0.4000E+01  0.4000E+01
    -36.490  0.0000E+00  0.0000E+00  0.4000E+01  0.4000E+01
    -36.326  0.0000E+00  0.0000E+00  0.4000E+01  0.4000E+01
    -36.163  0.0000E+00  0.0000E+00  0.4000E+01  0.4000E+01
    -35.999  0.0000E+00  0.0000E+00  0.4000E+01  0.4000E+01
    -35.836  0.0000E+00  0.0000E+00  0.4000E+01  0.4000E+01
    -35.673  0.0000E+00  0.0000E+00  0.4000E+01  0.4000E+01
    -35.509  0.0000E+00  0.0000E+00  0.4000E+01  0.4000E+01
    -35.346  0.0000E+00  0.0000E+00  0.4000E+01  0.4000E+01
    -35.182  0.0000E+00  0.0000E+00  0.4000E+01  0.4000E+01
    -35.019  0.0000E+00  0.0000E+00  0.4000E+01  0.4000E+01
    -34.855  0.0000E+00  0.0000E+00  0.4000E+01  0.4000E+01
    -34.692  0.0000E+00  0.0000E+00  0.4000E+01  0.4000E+01
    -34.529  0.0000E+00  0.0000E+00  0.4000E+01  0.4000E+01
    -34.365  0.0000E+00  0.0000E+00  0.4000E+01  0.4000E+01
    -34.202  0.0000E+00  0.0000E+00  0.4000E+01  0.4000E+01
    -34.038  0.0000E+00  0.0000E+00  0.4000E+01  0.4000E+01
    -33.875  0.0000E+00  0.0000E+00  0.4000E+01  0.4000E+01
    -33.711  0.0000E+00  0.0000E+00  0.4000E+01  0.4000E+01
    -33.548  0.0000E+00  0.0000E+00  0.4000E+01  0.4000E+01
    -33.384  0.0000E+00  0.0000E+00  0.4000E+01  0.4000E+01
    -33.221  0.0000E+00  0.0000E+00  0.4000E+01  0.4000E+01
    -33.058  0.0000E+00  0.0000E+00  0.4000E+01  0.4000E+01
    -32.894  0.0000E+00  0.0000E+00  0.4000E+01  0.4000E+01
    -32.731  0.0000E+00  0.0000E+00  0.4000E+01  0.4000E+01
    -32.567  0.0000E+00  0.0000E+00  0.4000E+01  0.4000E+01
    -32.404  0.0000E+00  0.0000E+00  0.4000E+01  0.4000E+01
    -32.240  0.0000E+00  0.0000E+00  0.4000E+01  0.4000E+01
    -32.077  0.0000E+00  0.0000E+00  0.4000E+01  0.4000E+01
    -31.913  0.0000E+00  0.0000E+00  0.4000E+01  0.4000E+01
    -31.750  0.0000E+00  0.0000E+00  0.4000E+01  0.4000E+01
    -31.587  0.0000E+00  0.0000E+00  0.4000E+01  0.4000E+01
    -31.423  0.0000E+00  0.0000E+00  0.4000E+01  0.4000E+01
    -31.260  0.0000E+00  0.0000E+00  0.4000E+01  0.4000E+01
    -31.096  0.0000E+00  0.0000E+00  0.4000E+01  0.4000E+01
    -30.933  0.0000E+00  0.0000E+00  0.4000E+01  0.4000E+01
    -30.769  0.0000E+00  0.0000E+00  0.4000E+01  0.4000E+01
    -30.606  0.0000E+00  0.0000E+00  0.4000E+01  0.4000E+01
    -30.442  0.0000E+00  0.0000E+00  0.4000E+01  0.4000E+01
    -30.279  0.0000E+00  0.0000E+00  0.4000E+01  0.4000E+01
    -30.116  0.0000E+00  0.0000E+00  0.4000E+01  0.4000E+01
    -29.952  0.0000E+00  0.0000E+00  0.4000E+01  0.4000E+01
    -29.789  0.0000E+00  0.0000E+00  0.4000E+01  0.4000E+01
    -29.625  0.0000E+00  0.0000E+00  0.4000E+01  0.4000E+01
    -29.462  0.0000E+00  0.0000E+00  0.4000E+01  0.4000E+01
    -29.298  0.0000E+00  0.0000E+00  0.4000E+01  0.4000E+01
    -29.135  0.0000E+00  0.0000E+00  0.4000E+01  0.4000E+01
    -28.971  0.0000E+00  0.0000E+00  0.4000E+01  0.4000E+01
    -28.808  0.0000E+00  0.0000E+00  0.4000E+01  0.4000E+01
    -28.645  0.0000E+00  0.0000E+00  0.4000E+01  0.4000E+01
    -28.481  0.0000E+00  0.0000E+00  0.4000E+01  0.4000E+01
    -28.318  0.0000E+00  0.0000E+00  0.4000E+01  0.4000E+01
    -28.154  0.0000E+00  0.0000E+00  0.4000E+01  0.4000E+01
    -27.991  0.0000E+00  0.0000E+00  0.4000E+01  0.4000E+01
    -27.827  0.0000E+00  0.0000E+00  0.4000E+01  0.4000E+01
    -27.664  0.0000E+00  0.0000E+00  0.4000E+01  0.4000E+01
    -27.501  0.0000E+00  0.0000E+00  0.4000E+01  0.4000E+01
    -27.337  0.0000E+00  0.0000E+00  0.4000E+01  0.4000E+01
    -27.174  0.0000E+00  0.0000E+00  0.4000E+01  0.4000E+01
    -27.010  0.0000E+00  0.0000E+00  0.4000E+01  0.4000E+01
    -26.847  0.0000E+00  0.0000E+00  0.4000E+01  0.4000E+01
    -26.683  0.0000E+00  0.0000E+00  0.4000E+01  0.4000E+01
    -26.520  0.0000E+00  0.0000E+00  0.4000E+01  0.4000E+01
    -26.356  0.0000E+00  0.0000E+00  0.4000E+01  0.4000E+01
    -26.193  0.0000E+00  0.0000E+00  0.4000E+01  0.4000E+01
    -26.030  0.0000E+00  0.0000E+00  0.4000E+01  0.4000E+01
    -25.866  0.0000E+00  0.0000E+00  0.4000E+01  0.4000E+01
    -25.703  0.0000E+00  0.0000E+00  0.4000E+01  0.4000E+01
    -25.539  0.0000E+00  0.0000E+00  0.4000E+01  0.4000E+01
    -25.376  0.0000E+00  0.0000E+00  0.4000E+01  0.4000E+01
    -25.212  0.0000E+00  0.0000E+00  0.4000E+01  0.4000E+01
    -25.049  0.0000E+00  0.0000E+00  0.4000E+01  0.4000E+01
    -24.885  0.0000E+00  0.0000E+00  0.4000E+01  0.4000E+01
    -24.722  0.0000E+00  0.0000E+00  0.4000E+01  0.4000E+01
    -24.559  0.0000E+00  0.0000E+00  0.4000E+01  0.4000E+01
    -24.395  0.0000E+00  0.0000E+00  0.4000E+01  0.4000E+01
    -24.232  0.0000E+00  0.0000E+00  0.4000E+01  0.4000E+01
    -24.068  0.0000E+00  0.0000E+00  0.4000E+01  0.4000E+01
    -23.905  0.0000E+00  0.0000E+00  0.4000E+01  0.4000E+01
    -23.741  0.0000E+00  0.0000E+00  0.4000E+01  0.4000E+01
    -23.578  0.0000E+00  0.0000E+00  0.4000E+01  0.4000E+01
    -23.414  0.0000E+00  0.0000E+00  0.4000E+01  0.4000E+01
    -23.251  0.0000E+00  0.0000E+00  0.4000E+01  0.4000E+01
    -23.088  0.0000E+00  0.0000E+00  0.4000E+01  0.4000E+01
    -22.924  0.0000E+00  0.0000E+00  0.4000E+01  0.4000E+01
    -22.761  0.0000E+00  0.0000E+00  0.4000E+01  0.4000E+01
    -22.597  0.0000E+00  0.0000E+00  0.4000E+01  0.4000E+01
    -22.434  0.0000E+00  0.0000E+00  0.4000E+01  0.4000E+01
    -22.270  0.0000E+00  0.0000E+00  0.4000E+01  0.4000E+01
    -22.107  0.0000E+00  0.0000E+00  0.4000E+01  0.4000E+01
    -21.943  0.0000E+00  0.0000E+00  0.4000E+01  0.4000E+01
    -21.780  0.0000E+00  0.0000E+00  0.4000E+01  0.4000E+01
    -21.617  0.0000E+00  0.0000E+00  0.4000E+01  0.4000E+01
    -21.453  0.0000E+00  0.0000E+00  0.4000E+01  0.4000E+01
    -21.290  0.0000E+00  0.0000E+00  0.4000E+01  0.4000E+01
    -21.126  0.0000E+00  0.0000E+00  0.4000E+01  0.4000E+01
    -20.963  0.0000E+00  0.0000E+00  0.4000E+01  0.4000E+01
    -20.799  0.0000E+00  0.0000E+00  0.4000E+01  0.4000E+01
    -20.636  0.0000E+00  0.0000E+00  0.4000E+01  0.4000E+01
    -20.473  0.0000E+00  0.0000E+00  0.4000E+01  0.4000E+01
    -20.309  0.0000E+00  0.0000E+00  0.4000E+01  0.4000E+01
    -20.146  0.0000E+00  0.0000E+00  0.4000E+01  0.4000E+01
    -19.982  0.0000E+00  0.0000E+00  0.4000E+01  0.4000E+01
    -19.819  0.1102E-02  0.1110E-02  0.4000E+01  0.4000E+01
    -19.655  0.3022E-01  0.3044E-01  0.4005E+01  0.4005E+01
    -19.492  0.7594E+00  0.7646E+00  0.4129E+01  0.4130E+01
    -19.328  0.1011E+02  0.1015E+02  0.5781E+01  0.5788E+01
    -19.165  0.2669E+02  0.2671E+02  0.1014E+02  0.1015E+02
    -19.002  0.2995E+02  0.2991E+02  0.1504E+02  0.1504E+02
    -18.838  0.5566E+01  0.5536E+01  0.1596E+02  0.1596E+02
    -18.675  0.1285E+00  0.1265E+00  0.1600E+02  0.1600E+02
    -18.511  0.0000E+00  0.0000E+00  0.1600E+02  0.1600E+02
    -18.348  0.0000E+00  0.0000E+00  0.1600E+02  0.1600E+02
    -18.184  0.0000E+00  0.0000E+00  0.1600E+02  0.1600E+02
    -18.021  0.0000E+00  0.0000E+00  0.1600E+02  0.1600E+02
    -17.857  0.0000E+00  0.0000E+00  0.1600E+02  0.1600E+02
    -17.694  0.0000E+00  0.0000E+00  0.1600E+02  0.1600E+02
    -17.531  0.0000E+00  0.0000E+00  0.1600E+02  0.1600E+02
    -17.367  0.0000E+00  0.0000E+00  0.1600E+02  0.1600E+02
    -17.204  0.0000E+00  0.0000E+00  0.1600E+02  0.1600E+02
    -17.040  0.0000E+00  0.0000E+00  0.1600E+02  0.1600E+02
    -16.877  0.0000E+00  0.0000E+00  0.1600E+02  0.1600E+02
    -16.713  0.0000E+00  0.0000E+00  0.1600E+02  0.1600E+02
    -16.550  0.0000E+00  0.0000E+00  0.1600E+02  0.1600E+02
    -16.386  0.0000E+00  0.0000E+00  0.1600E+02  0.1600E+02
    -16.223  0.0000E+00  0.0000E+00  0.1600E+02  0.1600E+02
    -16.060  0.0000E+00  0.0000E+00  0.1600E+02  0.1600E+02
    -15.896  0.0000E+00  0.0000E+00  0.1600E+02  0.1600E+02
    -15.733  0.0000E+00  0.0000E+00  0.1600E+02  0.1600E+02
    -15.569  0.0000E+00  0.0000E+00  0.1600E+02  0.1600E+02
    -15.406  0.0000E+00  0.0000E+00  0.1600E+02  0.1600E+02
    -15.242  0.0000E+00  0.0000E+00  0.1600E+02  0.1600E+02
    -15.079  0.0000E+00  0.0000E+00  0.1600E+02  0.1600E+02
    -14.915  0.0000E+00  0.0000E+00  0.1600E+02  0.1600E+02
    -14.752  0.0000E+00  0.0000E+00  0.1600E+02  0.1600E+02
    -14.589  0.0000E+00  0.0000E+00  0.1600E+02  0.1600E+02
    -14.425  0.0000E+00  0.0000E+00  0.1600E+02  0.1600E+02
    -14.262  0.0000E+00  0.0000E+00  0.1600E+02  0.1600E+02
    -14.098  0.0000E+00  0.0000E+00  0.1600E+02  0.1600E+02
    -13.935  0.0000E+00  0.0000E+00  0.1600E+02  0.1600E+02
    -13.771  0.0000E+00  0.0000E+00  0.1600E+02  0.1600E+02
    -13.608  0.0000E+00  0.0000E+00  0.1600E+02  0.1600E+02
    -13.445  0.0000E+00  0.0000E+00  0.1600E+02  0.1600E+02
    -13.281  0.0000E+00  0.0000E+00  0.1600E+02  0.1600E+02
    -13.118  0.0000E+00  0.0000E+00  0.1600E+02  0.1600E+02
    -12.954  0.0000E+00  0.0000E+00  0.1600E+02  0.1600E+02
    -12.791  0.0000E+00  0.0000E+00  0.1600E+02  0.1600E+02
    -12.627  0.0000E+00  0.0000E+00  0.1600E+02  0.1600E+02
    -12.464  0.0000E+00  0.0000E+00  0.1600E+02  0.1600E+02
    -12.300  0.0000E+00  0.0000E+00  0.1600E+02  0.1600E+02
    -12.137  0.0000E+00  0.0000E+00  0.1600E+02  0.1600E+02
    -11.974  0.0000E+00  0.0000E+00  0.1600E+02  0.1600E+02
    -11.810  0.0000E+00  0.0000E+00  0.1600E+02  0.1600E+02
    -11.647  0.0000E+00  0.0000E+00  0.1600E+02  0.1600E+02
    -11.483  0.0000E+00  0.0000E+00  0.1600E+02  0.1600E+02
    -11.320  0.0000E+00  0.0000E+00  0.1600E+02  0.1600E+02
    -11.156  0.0000E+00  0.0000E+00  0.1600E+02  0.1600E+02
    -10.993  0.0000E+00  0.0000E+00  0.1600E+02  0.1600E+02
    -10.829  0.0000E+00  0.0000E+00  0.1600E+02  0.1600E+02
    -10.666  0.0000E+00  0.0000E+00  0.1600E+02  0.1600E+02
    -10.503  0.0000E+00  0.0000E+00  0.1600E+02  0.1600E+02
    -10.339  0.0000E+00  0.0000E+00  0.1600E+02  0.1600E+02
    -10.176  0.0000E+00  0.0000E+00  0.1600E+02  0.1600E+02
    -10.012  0.0000E+00  0.0000E+00  0.1600E+02  0.1600E+02
     -9.849  0.0000E+00  0.0000E+00  0.1600E+02  0.1600E+02
     -9.685  0.0000E+00  0.0000E+00  0.1600E+02  0.1600E+02
     -9.522  0.0000E+00  0.0000E+00  0.1600E+02  0.1600E+02
     -9.358  0.0000E+00  0.0000E+00  0.1600E+02  0.1600E+02
     -9.195  0.0000E+00  0.0000E+00  0.1600E+02  0.1600E+02
     -9.032  0.0000E+00  0.0000E+00  0.1600E+02  0.1600E+02
     -8.868  0.0000E+00  0.0000E+00  0.1600E+02  0.1600E+02
     -8.705  0.0000E+00  0.0000E+00  0.1600E+02  0.1600E+02
     -8.541  0.0000E+00  0.0000E+00  0.1600E+02  0.1600E+02
     -8.378  0.0000E+00  0.0000E+00  0.1600E+02  0.1600E+02
     -8.214  0.0000E+00  0.0000E+00  0.1600E+02  0.1600E+02
     -8.051  0.0000E+00  0.0000E+00  0.1600E+02  0.1600E+02
     -7.887  0.0000E+00  0.0000E+00  0.1600E+02  0.1600E+02
     -7.724  0.0000E+00  0.0000E+00  0.1600E+02  0.1600E+02
     -7.561  0.0000E+00  0.0000E+00  0.1600E+02  0.1600E+02
     -7.397  0.0000E+00  0.0000E+00  0.1600E+02  0.1600E+02
     -7.234  0.0000E+00  0.0000E+00  0.1600E+02  0.1600E+02
     -7.070  0.0000E+00  0.0000E+00  0.1600E+02  0.1600E+02
     -6.907  0.0000E+00  0.0000E+00  0.1600E+02  0.1600E+02
     -6.743  0.0000E+00  0.0000E+00  0.1600E+02  0.1600E+02
     -6.580  0.0000E+00  0.0000E+00  0.1600E+02  0.1600E+02
     -6.417  0.0000E+00  0.0000E+00  0.1600E+02  0.1600E+02
     -6.253  0.0000E+00  0.0000E+00  0.1600E+02  0.1600E+02
     -6.090  0.0000E+00  0.0000E+00  0.1600E+02  0.1600E+02
     -5.926  0.0000E+00  0.0000E+00  0.1600E+02  0.1600E+02
     -5.763  0.0000E+00  0.0000E+00  0.1600E+02  0.1600E+02
     -5.599  0.0000E+00  0.0000E+00  0.1600E+02  0.1600E+02
     -5.436  0.0000E+00  0.0000E+00  0.1600E+02  0.1600E+02
     -5.272  0.0000E+00  0.0000E+00  0.1600E+02  0.1600E+02
     -5.109  0.0000E+00  0.0000E+00  0.1600E+02  0.1600E+02
     -4.946  0.0000E+00  0.0000E+00  0.1600E+02  0.1600E+02
     -4.782  0.0000E+00  0.0000E+00  0.1600E+02  0.1600E+02
     -4.619  0.0000E+00  0.0000E+00  0.1600E+02  0.1600E+02
     -4.455  0.0000E+00  0.0000E+00  0.1600E+02  0.1600E+02
     -4.292  0.0000E+00  0.0000E+00  0.1600E+02  0.1600E+02
     -4.128  0.0000E+00  0.0000E+00  0.1600E+02  0.1600E+02
     -3.965  0.0000E+00  0.0000E+00  0.1600E+02  0.1600E+02
     -3.801  0.0000E+00  0.0000E+00  0.1600E+02  0.1600E+02
     -3.638  0.0000E+00  0.0000E+00  0.1600E+02  0.1600E+02
     -3.475  0.0000E+00  0.0000E+00  0.1600E+02  0.1600E+02
     -3.311  0.0000E+00  0.0000E+00  0.1600E+02  0.1600E+02
     -3.148  0.0000E+00  0.0000E+00  0.1600E+02  0.1600E+02
     -2.984  0.0000E+00  0.0000E+00  0.1600E+02  0.1600E+02
     -2.821  0.0000E+00  0.0000E+00  0.1600E+02  0.1600E+02
     -2.657  0.0000E+00  0.0000E+00  0.1600E+02  0.1600E+02
     -2.494  0.0000E+00  0.0000E+00  0.1600E+02  0.1600E+02
     -2.330  0.0000E+00  0.0000E+00  0.1600E+02  0.1600E+02
     -2.167  0.0000E+00  0.0000E+00  0.1600E+02  0.1600E+02
     -2.004  0.0000E+00  0.0000E+00  0.1600E+02  0.1600E+02
     -1.840  0.0000E+00  0.0000E+00  0.1600E+02  0.1600E+02
     -1.677  0.5611E-05  0.5738E-05  0.1600E+02  0.1600E+02
     -1.513  0.1566E-03  0.1601E-03  0.1600E+02  0.1600E+02
     -1.350  0.3829E-02  0.3909E-02  0.1600E+02  0.1600E+02
     -1.186  0.4418E-01  0.4468E-01  0.1601E+02  0.1601E+02
     -1.023  0.1272E+00  0.1277E+00  0.1603E+02  0.1603E+02
     -0.859  0.1853E+00  0.1857E+00  0.1606E+02  0.1606E+02
     -0.696  0.2374E+00  0.2376E+00  0.1610E+02  0.1610E+02
     -0.533  0.2746E+00  0.2748E+00  0.1614E+02  0.1614E+02
     -0.369  0.3297E+00  0.3297E+00  0.1620E+02  0.1620E+02
     -0.206  0.3444E+00  0.3452E+00  0.1625E+02  0.1625E+02
     -0.042  0.4210E+00  0.4208E+00  0.1632E+02  0.1632E+02
      0.121  0.4195E+00  0.4201E+00  0.1639E+02  0.1639E+02
      0.285  0.4817E+00  0.4819E+00  0.1647E+02  0.1647E+02
      0.448  0.5481E+00  0.5483E+00  0.1656E+02  0.1656E+02
      0.611  0.5226E+00  0.5228E+00  0.1664E+02  0.1665E+02
      0.775  0.6558E+00  0.6568E+00  0.1675E+02  0.1675E+02
      0.938  0.6514E+00  0.6508E+00  0.1686E+02  0.1686E+02
      1.102  0.6954E+00  0.6966E+00  0.1697E+02  0.1697E+02
      1.265  0.8310E+00  0.8310E+00  0.1711E+02  0.1711E+02
      1.429  0.8077E+00  0.8088E+00  0.1724E+02  0.1724E+02
      1.592  0.9443E+00  0.9446E+00  0.1740E+02  0.1740E+02
      1.756  0.1005E+01  0.1005E+01  0.1756E+02  0.1756E+02
      1.919  0.1177E+01  0.1179E+01  0.1775E+02  0.1775E+02
      2.082  0.1285E+01  0.1286E+01  0.1796E+02  0.1797E+02
      2.246  0.1572E+01  0.1574E+01  0.1822E+02  0.1822E+02
      2.409  0.1625E+01  0.1625E+01  0.1849E+02  0.1849E+02
      2.573  0.1896E+01  0.1897E+01  0.1880E+02  0.1880E+02
      2.736  0.1708E+01  0.1707E+01  0.1908E+02  0.1908E+02
      2.900  0.1771E+01  0.1770E+01  0.1937E+02  0.1937E+02
      3.063  0.1717E+01  0.1718E+01  0.1965E+02  0.1965E+02
      3.227  0.1910E+01  0.1910E+01  0.1996E+02  0.1996E+02
      3.390  0.1767E+01  0.1770E+01  0.2025E+02  0.2025E+02
      3.553  0.2484E+01  0.2489E+01  0.2066E+02  0.2066E+02
      3.717  0.4045E+01  0.4051E+01  0.2132E+02  0.2132E+02
      3.880  0.4172E+01  0.4167E+01  0.2200E+02  0.2201E+02
      4.044  0.3250E+01  0.3245E+01  0.2254E+02  0.2254E+02
      4.207  0.2983E+01  0.2984E+01  0.2303E+02  0.2303E+02
      4.371  0.3429E+01  0.3433E+01  0.2359E+02  0.2359E+02
      4.534  0.3820E+01  0.3821E+01  0.2421E+02  0.2422E+02
      4.698  0.3928E+01  0.3927E+01  0.2486E+02  0.2486E+02
      4.861  0.3576E+01  0.3572E+01  0.2544E+02  0.2545E+02
      5.024  0.2834E+01  0.2828E+01  0.2591E+02  0.2591E+02
      5.188  0.2329E+01  0.2331E+01  0.2629E+02  0.2629E+02
      5.351  0.2023E+01  0.2040E+01  0.2662E+02  0.2663E+02
      5.515  0.1860E+01  0.1922E+01  0.2693E+02  0.2694E+02
      5.678  0.1584E+01  0.1687E+01  0.2719E+02  0.2722E+02
      5.842  0.1537E+01  0.1543E+01  0.2744E+02  0.2747E+02
      6.005  0.1526E+01  0.1478E+01  0.2769E+02  0.2771E+02
      6.169  0.1423E+01  0.1366E+01  0.2792E+02  0.2794E+02
      6.332  0.4298E+00  0.3451E+00  0.2799E+02  0.2799E+02
      6.495  0.3664E-01  0.2494E-01  0.2800E+02  0.2800E+02
      6.659  0.1776E-02  0.6978E-03  0.2800E+02  0.2800E+02
      6.822  0.0000E+00  0.0000E+00  0.2800E+02  0.2800E+02
      6.986  0.0000E+00  0.0000E+00  0.2800E+02  0.2800E+02
      7.149  0.0000E+00  0.0000E+00  0.2800E+02  0.2800E+02
      7.313  0.0000E+00  0.0000E+00  0.2800E+02  0.2800E+02
      7.476  0.0000E+00  0.0000E+00  0.2800E+02  0.2800E+02
      7.639  0.0000E+00  0.0000E+00  0.2800E+02  0.2800E+02
      7.803  0.0000E+00  0.0000E+00  0.2800E+02  0.2800E+02
      7.966  0.0000E+00  0.0000E+00  0.2800E+02  0.2800E+02
      8.130  0.0000E+00  0.0000E+00  0.2800E+02  0.2800E+02
      8.293  0.0000E+00  0.0000E+00  0.2800E+02  0.2800E+02
      8.457  0.0000E+00  0.0000E+00  0.2800E+02  0.2800E+02
      8.620  0.0000E+00  0.0000E+00  0.2800E+02  0.2800E+02
      8.62013031    -40.41242065  301      3.24826681      1.00000000
    -40.412  0.0000E+00  0.0000E+00  0.0000E+00  0.0000E+00  0.0000E+00  0.0000E+00  0.0000E+00  0.0000E+00  0.0000E+00  0.0000E+00  0.0000E+00  0.0000E+00  0.0000E+00  0.0000E+00  0.0000E+00  0.0000E+00  0.0000E+00  0.0000E+00
    -40.249  0.0000E+00  0.0000E+00  0.0000E+00  0.0000E+00  0.0000E+00  0.0000E+00  0.0000E+00  0.0000E+00  0.0000E+00  0.0000E+00  0.0000E+00  0.0000E+00  0.0000E+00  0.0000E+00  0.0000E+00  0.0000E+00  0.0000E+00  0.0000E+00
    -40.086  0.0000E+00  0.0000E+00  0.0000E+00  0.0000E+00  0.0000E+00  0.0000E+00  0.0000E+00  0.0000E+00  0.0000E+00  0.0000E+00  0.0000E+00  0.0000E+00  0.0000E+00  0.0000E+00  0.0000E+00  0.0000E+00  0.0000E+00  0.0000E+00
    -39.922  0.0000E+00  0.0000E+00  0.0000E+00  0.0000E+00  0.0000E+00  0.0000E+00  0.0000E+00  0.0000E+00  0.0000E+00  0.0000E+00  0.0000E+00  0.0000E+00  0.0000E+00  0.0000E+00  0.0000E+00  0.0000E+00  0.0000E+00  0.0000E+00
    -39.759  0.0000E+00  0.0000E+00  0.0000E+00  0.0000E+00  0.0000E+00  0.0000E+00  0.0000E+00  0.0000E+00  0.0000E+00  0.0000E+00  0.0000E+00  0.0000E+00  0.0000E+00  0.0000E+00  0.0000E+00  0.0000E+00  0.0000E+00  0.0000E+00
    -39.595  0.0000E+00  0.0000E+00  0.0000E+00  0.0000E+00  0.0000E+00  0.0000E+00  0.0000E+00  0.0000E+00  0.0000E+00  0.0000E+00  0.0000E+00  0.0000E+00  0.0000E+00  0.0000E+00  0.0000E+00  0.0000E+00  0.0000E+00  0.0000E+00
    -39.432  0.0000E+00  0.0000E+00  0.0000E+00  0.0000E+00  0.0000E+00  0.0000E+00  0.0000E+00  0.0000E+00  0.0000E+00  0.0000E+00  0.0000E+00  0.0000E+00  0.0000E+00  0.0000E+00  0.0000E+00  0.0000E+00  0.0000E+00  0.0000E+00
    -39.268  0.0000E+00  0.0000E+00  0.0000E+00  0.0000E+00  0.0000E+00  0.0000E+00  0.0000E+00  0.0000E+00  0.0000E+00  0.0000E+00  0.0000E+00  0.0000E+00  0.0000E+00  0.0000E+00  0.0000E+00  0.0000E+00  0.0000E+00  0.0000E+00
    -39.105  0.0000E+00  0.0000E+00  0.0000E+00  0.0000E+00  0.0000E+00  0.0000E+00  0.0000E+00  0.0000E+00  0.0000E+00  0.0000E+00  0.0000E+00  0.0000E+00  0.0000E+00  0.0000E+00  0.0000E+00  0.0000E+00  0.0000E+00  0.0000E+00
    -38.941  0.0000E+00  0.0000E+00  0.0000E+00  0.0000E+00  0.0000E+00  0.0000E+00  0.0000E+00  0.0000E+00  0.0000E+00  0.0000E+00  0.0000E+00  0.0000E+00  0.0000E+00  0.0000E+00  0.0000E+00  0.0000E+00  0.0000E+00  0.0000E+00
    -38.778  0.0000E+00  0.0000E+00  0.0000E+00  0.0000E+00  0.0000E+00  0.0000E+00  0.0000E+00  0.0000E+00  0.0000E+00  0.0000E+00  0.0000E+00  0.0000E+00  0.0000E+00  0.0000E+00  0.0000E+00  0.0000E+00  0.0000E+00  0.0000E+00
    -38.615  0.4262E-03  0.4289E-03  0.4048E-09  0.4076E-09  0.4048E-09  0.4076E-09  0.4048E-09  0.4076E-09  0.1258E-09  0.1266E-09  0.1258E-09  0.1266E-09  0.5326E-10  0.5361E-10  0.1258E-09  0.1266E-09  0.5326E-10  0.5361E-10
    -38.451  0.1075E-01  0.1082E-01  0.1021E-07  0.1028E-07  0.1021E-07  0.1028E-07  0.1021E-07  0.1028E-07  0.3173E-08  0.3195E-08  0.3173E-08  0.3195E-08  0.1344E-08  0.1353E-08  0.3173E-08  0.3195E-08  0.1344E-08  0.1353E-08
    -38.288  0.2682E+00  0.2698E+00  0.2528E-06  0.2544E-06  0.2528E-06  0.2544E-06  0.2528E-06  0.2544E-06  0.7949E-07  0.8000E-07  0.7949E-07  0.8000E-07  0.3389E-07  0.3411E-07  0.7949E-07  0.8000E-07  0.3389E-07  0.3411E-07
    -38.124  0.3036E+01  0.3044E+01  0.2622E-05  0.2629E-05  0.2622E-05  0.2629E-05  0.2622E-05  0.2629E-05  0.9240E-06  0.9267E-06  0.9240E-06  0.9267E-06  0.4281E-06  0.4294E-06  0.9240E-06  0.9267E-06  0.4281E-06  0.4294E-06
    -37.961  0.2531E+01  0.2523E+01  0.1881E-05  0.1876E-05  0.1881E-05  0.1876E-05  0.1881E-05  0.1876E-05  0.7674E-06  0.7651E-06  0.7674E-06  0.7651E-06  0.4112E-06  0.4101E-06  0.7674E-06  0.7651E-06  0.4112E-06  0.4101E-06
    -37.797  0.1802E+00  0.1791E+00  0.1247E-06  0.1240E-06  0.1247E-06  0.1240E-06  0.1247E-06  0.1240E-06  0.5371E-07  0.5339E-07  0.5371E-07  0.5339E-07  0.3099E-07  0.3082E-07  0.5371E-07  0.5339E-07  0.3099E-07  0.3082E-07
    -37.634  0.0000E+00  0.0000E+00  0.0000E+00  0.0000E+00  0.0000E+00  0.0000E+00  0.0000E+00  0.0000E+00  0.0000E+00  0.0000E+00  0.0000E+00  0.0000E+00  0.0000E+00  0.0000E+00  0.0000E+00  0.0000E+00  0.0000E+00  0.0000E+00
    -37.470  0.0000E+00  0.0000E+00  0.0000E+00  0.0000E+00  0.0000E+00  0.0000E+00  0.0000E+00  0.0000E+00  0.0000E+00  0.0000E+00  0.0000E+00  0.0000E+00  0.0000E+00  0.0000E+00  0.0000E+00  0.0000E+00  0.0000E+00  0.0000E+00
    -37.307  0.0000E+00  0.0000E+00  0.0000E+00  0.0000E+00  0.0000E+00  0.0000E+00  0.0000E+00  0.0000E+00  0.0000E+00  0.0000E+00  0.0000E+00  0.0000E+00  0.0000E+00  0.0000E+00  0.0000E+00  0.0000E+00  0.0000E+00  0.0000E+00
    -37.144  0.0000E+00  0.0000E+00  0.0000E+00  0.0000E+00  0.0000E+00  0.0000E+00  0.0000E+00  0.0000E+00  0.0000E+00  0.0000E+00  0.0000E+00  0.0000E+00  0.0000E+00  0.0000E+00  0.0000E+00  0.0000E+00  0.0000E+00  0.0000E+00
    -36.980  0.0000E+00  0.0000E+00  0.0000E+00  0.0000E+00  0.0000E+00  0.0000E+00  0.0000E+00  0.0000E+00  0.0000E+00  0.0000E+00  0.0000E+00  0.0000E+00  0.0000E+00  0.0000E+00  0.0000E+00  0.0000E+00  0.0000E+00  0.0000E+00
    -36.817  0.0000E+00  0.0000E+00  0.0000E+00  0.0000E+00  0.0000E+00  0.0000E+00  0.0000E+00  0.0000E+00  0.0000E+00  0.0000E+00  0.0000E+00  0.0000E+00  0.0000E+00  0.0000E+00  0.0000E+00  0.0000E+00  0.0000E+00  0.0000E+00
    -36.653  0.0000E+00  0.0000E+00  0.0000E+00  0.0000E+00  0.0000E+00  0.0000E+00  0.0000E+00  0.0000E+00  0.0000E+00  0.0000E+00  0.0000E+00  0.0000E+00  0.0000E+00  0.0000E+00  0.0000E+00  0.0000E+00  0.0000E+00  0.0000E+00
    -36.490  0.0000E+00  0.0000E+00  0.0000E+00  0.0000E+00  0.0000E+00  0.0000E+00  0.0000E+00  0.0000E+00  0.0000E+00  0.0000E+00  0.0000E+00  0.0000E+00  0.0000E+00  0.0000E+00  0.0000E+00  0.0000E+00  0.0000E+00  0.0000E+00
    -36.326  0.0000E+00  0.0000E+00  0.0000E+00  0.0000E+00  0.0000E+00  0.0000E+00  0.0000E+00  0.0000E+00  0.0000E+00  0.0000E+00  0.0000E+00  0.0000E+00  0.0000E+00  0.0000E+00  0.0000E+00  0.0000E+00  0.0000E+00  0.0000E+00
    -36.163  0.0000E+00  0.0000E+00  0.0000E+00  0.0000E+00  0.0000E+00  0.0000E+00  0.0000E+00  0.0000E+00  0.0000E+00  0.0000E+00  0.0000E+00  0.0000E+00  0.0000E+00  0.0000E+00  0.0000E+00  0.0000E+00  0.0000E+00  0.0000E+00
    -35.999  0.0000E+00  0.0000E+00  0.0000E+00  0.0000E+00  0.0000E+00  0.0000E+00  0.0000E+00  0.0000E+00  0.0000E+00  0.0000E+00  0.0000E+00  0.0000E+00  0.0000E+00  0.0000E+00  0.0000E+00  0.0000E+00  0.0000E+00  0.0000E+00
    -35.836  0.0000E+00  0.0000E+00  0.0000E+00  0.0000E+00  0.0000E+00  0.0000E+00  0.0000E+00  0.0000E+00  0.0000E+00  0.0000E+00  0.0000E+00  0.0000E+00  0.0000E+00  0.0000E+00  0.0000E+00  0.0000E+00  0.0000E+00  0.0000E+00
    -35.673  0.0000E+00  0.0000E+00  0.0000E+00  0.0000E+00  0.0000E+00  0.0000E+00  0.0000E+00  0.0000E+00  0.0000E+00  0.0000E+00  0.0000E+00  0.0000E+00  0.0000E+00  0.0000E+00  0.0000E+00  0.0000E+00  0.0000E+00  0.0000E+00
    -35.509  0.0000E+00  0.0000E+00  0.0000E+00  0.0000E+00  0.0000E+00  0.0000E+00  0.0000E+00  0.0000E+00  0.0000E+00  0.0000E+00  0.0000E+00  0.0000E+00  0.0000E+00  0.0000E+00  0.0000E+00  0.0000E+00  0.0000E+00  0.0000E+00
    -35.346  0.0000E+00  0.0000E+00  0.0000E+00  0.0000E+00  0.0000E+00  0.0000E+00  0.0000E+00  0.0000E+00  0.0000E+00  0.0000E+00  0.0000E+00  0.0000E+00  0.0000E+00  0.0000E+00  0.0000E+00  0.0000E+00  0.0000E+00  0.0000E+00
    -35.182  0.0000E+00  0.0000E+00  0.0000E+00  0.0000E+00  0.0000E+00  0.0000E+00  0.0000E+00  0.0000E+00  0.0000E+00  0.0000E+00  0.0000E+00  0.0000E+00  0.0000E+00  0.0000E+00  0.0000E+00  0.0000E+00  0.0000E+00  0.0000E+00
    -35.019  0.0000E+00  0.0000E+00  0.0000E+00  0.0000E+00  0.0000E+00  0.0000E+00  0.0000E+00  0.0000E+00  0.0000E+00  0.0000E+00  0.0000E+00  0.0000E+00  0.0000E+00  0.0000E+00  0.0000E+00  0.0000E+00  0.0000E+00  0.0000E+00
    -34.855  0.0000E+00  0.0000E+00  0.0000E+00  0.0000E+00  0.0000E+00  0.0000E+00  0.0000E+00  0.0000E+00  0.0000E+00  0.0000E+00  0.0000E+00  0.0000E+00  0.0000E+00  0.0000E+00  0.0000E+00  0.0000E+00  0.0000E+00  0.0000E+00
    -34.692  0.0000E+00  0.0000E+00  0.0000E+00  0.0000E+00  0.0000E+00  0.0000E+00  0.0000E+00  0.0000E+00  0.0000E+00  0.0000E+00  0.0000E+00  0.0000E+00  0.0000E+00  0.0000E+00  0.0000E+00  0.0000E+00  0.0000E+00  0.0000E+00
    -34.529  0.0000E+00  0.0000E+00  0.0000E+00  0.0000E+00  0.0000E+00  0.0000E+00  0.0000E+00  0.0000E+00  0.0000E+00  0.0000E+00  0.0000E+00  0.0000E+00  0.0000E+00  0.0000E+00  0.0000E+00  0.0000E+00  0.0000E+00  0.0000E+00
    -34.365  0.0000E+00  0.0000E+00  0.0000E+00  0.0000E+00  0.0000E+00  0.0000E+00  0.0000E+00  0.0000E+00  0.0000E+00  0.0000E+00  0.0000E+00  0.0000E+00  0.0000E+00  0.0000E+00  0.0000E+00  0.0000E+00  0.0000E+00  0.0000E+00
    -34.202  0.0000E+00  0.0000E+00  0.0000E+00  0.0000E+00  0.0000E+00  0.0000E+00  0.0000E+00  0.0000E+00  0.0000E+00  0.0000E+00  0.0000E+00  0.0000E+00  0.0000E+00  0.0000E+00  0.0000E+00  0.0000E+00  0.0000E+00  0.0000E+00
    -34.038  0.0000E+00  0.0000E+00  0.0000E+00  0.0000E+00  0.0000E+00  0.0000E+00  0.0000E+00  0.0000E+00  0.0000E+00  0.0000E+00  0.0000E+00  0.0000E+00  0.0000E+00  0.0000E+00  0.0000E+00  0.0000E+00  0.0000E+00  0.0000E+00
    -33.875  0.0000E+00  0.0000E+00  0.0000E+00  0.0000E+00  0.0000E+00  0.0000E+00  0.0000E+00  0.0000E+00  0.0000E+00  0.0000E+00  0.0000E+00  0.0000E+00  0.0000E+00  0.0000E+00  0.0000E+00  0.0000E+00  0.0000E+00  0.0000E+00
    -33.711  0.0000E+00  0.0000E+00  0.0000E+00  0.0000E+00  0.0000E+00  0.0000E+00  0.0000E+00  0.0000E+00  0.0000E+00  0.0000E+00  0.0000E+00  0.0000E+00  0.0000E+00  0.0000E+00  0.0000E+00  0.0000E+00  0.0000E+00  0.0000E+00
    -33.548  0.0000E+00  0.0000E+00  0.0000E+00  0.0000E+00  0.0000E+00  0.0000E+00  0.0000E+00  0.0000E+00  0.0000E+00  0.0000E+00  0.0000E+00  0.0000E+00  0.0000E+00  0.0000E+00  0.0000E+00  0.0000E+00  0.0000E+00  0.0000E+00
    -33.384  0.0000E+00  0.0000E+00  0.0000E+00  0.0000E+00  0.0000E+00  0.0000E+00  0.0000E+00  0.0000E+00  0.0000E+00  0.0000E+00  0.0000E+00  0.0000E+00  0.0000E+00  0.0000E+00  0.0000E+00  0.0000E+00  0.0000E+00  0.0000E+00
    -33.221  0.0000E+00  0.0000E+00  0.0000E+00  0.0000E+00  0.0000E+00  0.0000E+00  0.0000E+00  0.0000E+00  0.0000E+00  0.0000E+00  0.0000E+00  0.0000E+00  0.0000E+00  0.0000E+00  0.0000E+00  0.0000E+00  0.0000E+00  0.0000E+00
    -33.058  0.0000E+00  0.0000E+00  0.0000E+00  0.0000E+00  0.0000E+00  0.0000E+00  0.0000E+00  0.0000E+00  0.0000E+00  0.0000E+00  0.0000E+00  0.0000E+00  0.0000E+00  0.0000E+00  0.0000E+00  0.0000E+00  0.0000E+00  0.0000E+00
    -32.894  0.0000E+00  0.0000E+00  0.0000E+00  0.0000E+00  0.0000E+00  0.0000E+00  0.0000E+00  0.0000E+00  0.0000E+00  0.0000E+00  0.0000E+00  0.0000E+00  0.0000E+00  0.0000E+00  0.0000E+00  0.0000E+00  0.0000E+00  0.0000E+00
    -32.731  0.0000E+00  0.0000E+00  0.0000E+00  0.0000E+00  0.0000E+00  0.0000E+00  0.0000E+00  0.0000E+00  0.0000E+00  0.0000E+00  0.0000E+00  0.0000E+00  0.0000E+00  0.0000E+00  0.0000E+00  0.0000E+00  0.0000E+00  0.0000E+00
    -32.567  0.0000E+00  0.0000E+00  0.0000E+00  0.0000E+00  0.0000E+00  0.0000E+00  0.0000E+00  0.0000E+00  0.0000E+00  0.0000E+00  0.0000E+00  0.0000E+00  0.0000E+00  0.0000E+00  0.0000E+00  0.0000E+00  0.0000E+00  0.0000E+00
    -32.404  0.0000E+00  0.0000E+00  0.0000E+00  0.0000E+00  0.0000E+00  0.0000E+00  0.0000E+00  0.0000E+00  0.0000E+00  0.0000E+00  0.0000E+00  0.0000E+00  0.0000E+00  0.0000E+00  0.0000E+00  0.0000E+00  0.0000E+00  0.0000E+00
    -32.240  0.0000E+00  0.0000E+00  0.0000E+00  0.0000E+00  0.0000E+00  0.0000E+00  0.0000E+00  0.0000E+00  0.0000E+00  0.0000E+00  0.0000E+00  0.0000E+00  0.0000E+00  0.0000E+00  0.0000E+00  0.0000E+00  0.0000E+00  0.0000E+00