   4   4   1   0
  0.4750111E+02  0.5748942E-09  0.5748942E-09  0.5748942E-09  0.5000000E-15
  1.000000000000000E-004
  CAR 
 unknown system                          
      6.33957539    -43.02666519  301      1.51355200      1.00000000
    -43.027  0.0000E+00  0.0000E+00  0.0000E+00  0.0000E+00
    -42.862  0.0000E+00  0.0000E+00  0.0000E+00  0.0000E+00
    -42.698  0.0000E+00  0.0000E+00  0.0000E+00  0.0000E+00
    -42.533  0.0000E+00  0.0000E+00  0.0000E+00  0.0000E+00
    -42.368  0.0000E+00  0.0000E+00  0.0000E+00  0.0000E+00
    -42.204  0.0000E+00  0.0000E+00  0.0000E+00  0.0000E+00
    -42.039  0.0000E+00  0.0000E+00  0.0000E+00  0.0000E+00
    -41.875  0.0000E+00  0.0000E+00  0.0000E+00  0.0000E+00
    -41.710  0.0000E+00  0.0000E+00  0.0000E+00  0.0000E+00
    -41.546  0.0000E+00  0.0000E+00  0.0000E+00  0.0000E+00
    -41.381  0.0000E+00  0.0000E+00  0.0000E+00  0.0000E+00
    -41.217  0.3563E-02  0.3537E-02  0.5864E-03  0.5820E-03
    -41.052  0.9183E-01  0.9114E-01  0.1570E-01  0.1558E-01
    -40.887  0.2231E+01  0.2216E+01  0.3829E+00  0.3803E+00
    -40.723  0.1565E+02  0.1563E+02  0.2959E+01  0.2953E+01
    -40.558  0.6014E+01  0.6047E+01  0.3948E+01  0.3948E+01
    -40.394  0.3026E+00  0.3049E+00  0.3998E+01  0.3998E+01
    -40.229  0.0000E+00  0.0000E+00  0.4000E+01  0.4000E+01
    -40.065  0.0000E+00  0.0000E+00  0.4000E+01  0.4000E+01
    -39.900  0.0000E+00  0.0000E+00  0.4000E+01  0.4000E+01
    -39.736  0.0000E+00  0.0000E+00  0.4000E+01  0.4000E+01
    -39.571  0.0000E+00  0.0000E+00  0.4000E+01  0.4000E+01
    -39.406  0.0000E+00  0.0000E+00  0.4000E+01  0.4000E+01
    -39.242  0.0000E+00  0.0000E+00  0.4000E+01  0.4000E+01
    -39.077  0.0000E+00  0.0000E+00  0.4000E+01  0.4000E+01
    -38.913  0.0000E+00  0.0000E+00  0.4000E+01  0.4000E+01
    -38.748  0.0000E+00  0.0000E+00  0.4000E+01  0.4000E+01
    -38.584  0.0000E+00  0.0000E+00  0.4000E+01  0.4000E+01
    -38.419  0.0000E+00  0.0000E+00  0.4000E+01  0.4000E+01
    -38.255  0.0000E+00  0.0000E+00  0.4000E+01  0.4000E+01
    -38.090  0.0000E+00  0.0000E+00  0.4000E+01  0.4000E+01
    -37.925  0.0000E+00  0.0000E+00  0.4000E+01  0.4000E+01
    -37.761  0.0000E+00  0.0000E+00  0.4000E+01  0.4000E+01
    -37.596  0.0000E+00  0.0000E+00  0.4000E+01  0.4000E+01
    -37.432  0.0000E+00  0.0000E+00  0.4000E+01  0.4000E+01
    -37.267  0.0000E+00  0.0000E+00  0.4000E+01  0.4000E+01
    -37.103  0.0000E+00  0.0000E+00  0.4000E+01  0.4000E+01
    -36.938  0.0000E+00  0.0000E+00  0.4000E+01  0.4000E+01
    -36.774  0.0000E+00  0.0000E+00  0.4000E+01  0.4000E+01
    -36.609  0.0000E+00  0.0000E+00  0.4000E+01  0.4000E+01
    -36.444  0.0000E+00  0.0000E+00  0.4000E+01  0.4000E+01
    -36.280  0.0000E+00  0.0000E+00  0.4000E+01  0.4000E+01
    -36.115  0.0000E+00  0.0000E+00  0.4000E+01  0.4000E+01
    -35.951  0.0000E+00  0.0000E+00  0.4000E+01  0.4000E+01
    -35.786  0.0000E+00  0.0000E+00  0.4000E+01  0.4000E+01
    -35.622  0.0000E+00  0.0000E+00  0.4000E+01  0.4000E+01
    -35.457  0.0000E+00  0.0000E+00  0.4000E+01  0.4000E+01
    -35.293  0.0000E+00  0.0000E+00  0.4000E+01  0.4000E+01
    -35.128  0.0000E+00  0.0000E+00  0.4000E+01  0.4000E+01
    -34.964  0.0000E+00  0.0000E+00  0.4000E+01  0.4000E+01
    -34.799  0.0000E+00  0.0000E+00  0.4000E+01  0.4000E+01
    -34.634  0.0000E+00  0.0000E+00  0.4000E+01  0.4000E+01
    -34.470  0.0000E+00  0.0000E+00  0.4000E+01  0.4000E+01
    -34.305  0.0000E+00  0.0000E+00  0.4000E+01  0.4000E+01
    -34.141  0.0000E+00  0.0000E+00  0.4000E+01  0.4000E+01
    -33.976  0.0000E+00  0.0000E+00  0.4000E+01  0.4000E+01
    -33.812  0.0000E+00  0.0000E+00  0.4000E+01  0.4000E+01
    -33.647  0.0000E+00  0.0000E+00  0.4000E+01  0.4000E+01
    -33.483  0.0000E+00  0.0000E+00  0.4000E+01  0.4000E+01
    -33.318  0.0000E+00  0.0000E+00  0.4000E+01  0.4000E+01
    -33.153  0.0000E+00  0.0000E+00  0.4000E+01  0.4000E+01
    -32.989  0.0000E+00  0.0000E+00  0.4000E+01  0.4000E+01
    -32.824  0.0000E+00  0.0000E+00  0.4000E+01  0.4000E+01
    -32.660  0.0000E+00  0.0000E+00  0.4000E+01  0.4000E+01
    -32.495  0.0000E+00  0.0000E+00  0.4000E+01  0.4000E+01
    -32.331  0.0000E+00  0.0000E+00  0.4000E+01  0.4000E+01
    -32.166  0.0000E+00  0.0000E+00  0.4000E+01  0.4000E+01
    -32.002  0.0000E+00  0.0000E+00  0.4000E+01  0.4000E+01
    -31.837  0.0000E+00  0.0000E+00  0.4000E+01  0.4000E+01
    -31.672  0.0000E+00  0.0000E+00  0.4000E+01  0.4000E+01
    -31.508  0.0000E+00  0.0000E+00  0.4000E+01  0.4000E+01
    -31.343  0.0000E+00  0.0000E+00  0.4000E+01  0.4000E+01
    -31.179  0.0000E+00  0.0000E+00  0.4000E+01  0.4000E+01
    -31.014  0.0000E+00  0.0000E+00  0.4000E+01  0.4000E+01
    -30.850  0.0000E+00  0.0000E+00  0.4000E+01  0.4000E+01
    -30.685  0.0000E+00  0.0000E+00  0.4000E+01  0.4000E+01
    -30.521  0.0000E+00  0.0000E+00  0.4000E+01  0.4000E+01
    -30.356  0.0000E+00  0.0000E+00  0.4000E+01  0.4000E+01
    -30.191  0.0000E+00  0.0000E+00  0.4000E+01  0.4000E+01
    -30.027  0.0000E+00  0.0000E+00  0.4000E+01  0.4000E+01
    -29.862  0.0000E+00  0.0000E+00  0.4000E+01  0.4000E+01
    -29.698  0.0000E+00  0.0000E+00  0.4000E+01  0.4000E+01
    -29.533  0.0000E+00  0.0000E+00  0.4000E+01  0.4000E+01
    -29.369  0.0000E+00  0.0000E+00  0.4000E+01  0.4000E+01
    -29.204  0.0000E+00  0.0000E+00  0.4000E+01  0.4000E+01
    -29.040  0.0000E+00  0.0000E+00  0.4000E+01  0.4000E+01
    -28.875  0.0000E+00  0.0000E+00  0.4000E+01  0.4000E+01
    -28.710  0.0000E+00  0.0000E+00  0.4000E+01  0.4000E+01
    -28.546  0.0000E+00  0.0000E+00  0.4000E+01  0.4000E+01
    -28.381  0.0000E+00  0.0000E+00  0.4000E+01  0.4000E+01
    -28.217  0.0000E+00  0.0000E+00  0.4000E+01  0.4000E+01
    -28.052  0.0000E+00  0.0000E+00  0.4000E+01  0.4000E+01
    -27.888  0.0000E+00  0.0000E+00  0.4000E+01  0.4000E+01
    -27.723  0.0000E+00  0.0000E+00  0.4000E+01  0.4000E+01
    -27.559  0.0000E+00  0.0000E+00  0.4000E+01  0.4000E+01
    -27.394  0.0000E+00  0.0000E+00  0.4000E+01  0.4000E+01
    -27.229  0.0000E+00  0.0000E+00  0.4000E+01  0.4000E+01
    -27.065  0.0000E+00  0.0000E+00  0.4000E+01  0.4000E+01
    -26.900  0.0000E+00  0.0000E+00  0.4000E+01  0.4000E+01
    -26.736  0.0000E+00  0.0000E+00  0.4000E+01  0.4000E+01
    -26.571  0.0000E+00  0.0000E+00  0.4000E+01  0.4000E+01
    -26.407  0.0000E+00  0.0000E+00  0.4000E+01  0.4000E+01
    -26.242  0.0000E+00  0.0000E+00  0.4000E+01  0.4000E+01
    -26.078  0.0000E+00  0.0000E+00  0.4000E+01  0.4000E+01
    -25.913  0.0000E+00  0.0000E+00  0.4000E+01  0.4000E+01
    -25.748  0.0000E+00  0.0000E+00  0.4000E+01  0.4000E+01
    -25.584  0.0000E+00  0.0000E+00  0.4000E+01  0.4000E+01
    -25.419  0.0000E+00  0.0000E+00  0.4000E+01  0.4000E+01
    -25.255  0.0000E+00  0.0000E+00  0.4000E+01  0.4000E+01
    -25.090  0.0000E+00  0.0000E+00  0.4000E+01  0.4000E+01
    -24.926  0.0000E+00  0.0000E+00  0.4000E+01  0.4000E+01
    -24.761  0.0000E+00  0.0000E+00  0.4000E+01  0.4000E+01
    -24.597  0.0000E+00  0.0000E+00  0.4000E+01  0.4000E+01
    -24.432  0.0000E+00  0.0000E+00  0.4000E+01  0.4000E+01
    -24.267  0.0000E+00  0.0000E+00  0.4000E+01  0.4000E+01
    -24.103  0.0000E+00  0.0000E+00  0.4000E+01  0.4000E+01
    -23.938  0.0000E+00  0.0000E+00  0.4000E+01  0.4000E+01
    -23.774  0.0000E+00  0.0000E+00  0.4000E+01  0.4000E+01
    -23.609  0.0000E+00  0.0000E+00  0.4000E+01  0.4000E+01
    -23.445  0.0000E+00  0.0000E+00  0.4000E+01  0.4000E+01
    -23.280  0.0000E+00  0.0000E+00  0.4000E+01  0.4000E+01
    -23.116  0.0000E+00  0.0000E+00  0.4000E+01  0.4000E+01
    -22.951  0.0000E+00  0.0000E+00  0.4000E+01  0.4000E+01
    -22.787  0.0000E+00  0.0000E+00  0.4000E+01  0.4000E+01
    -22.622  0.0000E+00  0.0000E+00  0.4000E+01  0.4000E+01
    -22.457  0.0000E+00  0.0000E+00  0.4000E+01  0.4000E+01
    -22.293  0.1302E-02  0.1284E-02  0.4000E+01  0.4000E+01
    -22.128  0.3897E-01  0.3870E-01  0.4007E+01  0.4007E+01
    -21.964  0.1023E+01  0.1016E+01  0.4175E+01  0.4174E+01
    -21.799  0.1878E+02  0.1869E+02  0.7265E+01  0.7249E+01
    -21.635  0.4567E+02  0.4572E+02  0.1478E+02  0.1477E+02
    -21.470  0.7103E+01  0.7149E+01  0.1595E+02  0.1595E+02
    -21.306  0.0000E+00  0.0000E+00  0.1600E+02  0.1600E+02
    -21.141  0.0000E+00  0.0000E+00  0.1600E+02  0.1600E+02
    -20.976  0.0000E+00  0.0000E+00  0.1600E+02  0.1600E+02
    -20.812  0.0000E+00  0.0000E+00  0.1600E+02  0.1600E+02
    -20.647  0.0000E+00  0.0000E+00  0.1600E+02  0.1600E+02
    -20.483  0.0000E+00  0.0000E+00  0.1600E+02  0.1600E+02
    -20.318  0.0000E+00  0.0000E+00  0.1600E+02  0.1600E+02
    -20.154  0.0000E+00  0.0000E+00  0.1600E+02  0.1600E+02
    -19.989  0.0000E+00  0.0000E+00  0.1600E+02  0.1600E+02
    -19.825  0.0000E+00  0.0000E+00  0.1600E+02  0.1600E+02
    -19.660  0.0000E+00  0.0000E+00  0.1600E+02  0.1600E+02
    -19.495  0.0000E+00  0.0000E+00  0.1600E+02  0.1600E+02
    -19.331  0.0000E+00  0.0000E+00  0.1600E+02  0.1600E+02
    -19.166  0.0000E+00  0.0000E+00  0.1600E+02  0.1600E+02
    -19.002  0.0000E+00  0.0000E+00  0.1600E+02  0.1600E+02
    -18.837  0.0000E+00  0.0000E+00  0.1600E+02  0.1600E+02
    -18.673  0.0000E+00  0.0000E+00  0.1600E+02  0.1600E+02
    -18.508  0.0000E+00  0.0000E+00  0.1600E+02  0.1600E+02
    -18.344  0.0000E+00  0.0000E+00  0.1600E+02  0.1600E+02
    -18.179  0.0000E+00  0.0000E+00  0.1600E+02  0.1600E+02
    -18.014  0.0000E+00  0.0000E+00  0.1600E+02  0.1600E+02
    -17.850  0.0000E+00  0.0000E+00  0.1600E+02  0.1600E+02
    -17.685  0.0000E+00  0.0000E+00  0.1600E+02  0.1600E+02
    -17.521  0.0000E+00  0.0000E+00  0.1600E+02  0.1600E+02
    -17.356  0.0000E+00  0.0000E+00  0.1600E+02  0.1600E+02
    -17.192  0.0000E+00  0.0000E+00  0.1600E+02  0.1600E+02
    -17.027  0.0000E+00  0.0000E+00  0.1600E+02  0.1600E+02
    -16.863  0.0000E+00  0.0000E+00  0.1600E+02  0.1600E+02
    -16.698  0.0000E+00  0.0000E+00  0.1600E+02  0.1600E+02
    -16.533  0.0000E+00  0.0000E+00  0.1600E+02  0.1600E+02
    -16.369  0.0000E+00  0.0000E+00  0.1600E+02  0.1600E+02
    -16.204  0.0000E+00  0.0000E+00  0.1600E+02  0.1600E+02
    -16.040  0.0000E+00  0.0000E+00  0.1600E+02  0.1600E+02
    -15.875  0.0000E+00  0.0000E+00  0.1600E+02  0.1600E+02
    -15.711  0.0000E+00  0.0000E+00  0.1600E+02  0.1600E+02
    -15.546  0.0000E+00  0.0000E+00  0.1600E+02  0.1600E+02
    -15.382  0.0000E+00  0.0000E+00  0.1600E+02  0.1600E+02
    -15.217  0.0000E+00  0.0000E+00  0.1600E+02  0.1600E+02
    -15.052  0.0000E+00  0.0000E+00  0.1600E+02  0.1600E+02
    -14.888  0.0000E+00  0.0000E+00  0.1600E+02  0.1600E+02
    -14.723  0.0000E+00  0.0000E+00  0.1600E+02  0.1600E+02
    -14.559  0.0000E+00  0.0000E+00  0.1600E+02  0.1600E+02
    -14.394  0.0000E+00  0.0000E+00  0.1600E+02  0.1600E+02
    -14.230  0.0000E+00  0.0000E+00  0.1600E+02  0.1600E+02
    -14.065  0.0000E+00  0.0000E+00  0.1600E+02  0.1600E+02
    -13.901  0.0000E+00  0.0000E+00  0.1600E+02  0.1600E+02
    -13.736  0.0000E+00  0.0000E+00  0.1600E+02  0.1600E+02
    -13.571  0.0000E+00  0.0000E+00  0.1600E+02  0.1600E+02
    -13.407  0.0000E+00  0.0000E+00  0.1600E+02  0.1600E+02
    -13.242  0.0000E+00  0.0000E+00  0.1600E+02  0.1600E+02
    -13.078  0.0000E+00  0.0000E+00  0.1600E+02  0.1600E+02
    -12.913  0.0000E+00  0.0000E+00  0.1600E+02  0.1600E+02
    -12.749  0.0000E+00  0.0000E+00  0.1600E+02  0.1600E+02
    -12.584  0.0000E+00  0.0000E+00  0.1600E+02  0.1600E+02
    -12.420  0.0000E+00  0.0000E+00  0.1600E+02  0.1600E+02
    -12.255  0.0000E+00  0.0000E+00  0.1600E+02  0.1600E+02
    -12.090  0.0000E+00  0.0000E+00  0.1600E+02  0.1600E+02
    -11.926  0.0000E+00  0.0000E+00  0.1600E+02  0.1600E+02
    -11.761  0.0000E+00  0.0000E+00  0.1600E+02  0.1600E+02
    -11.597  0.0000E+00  0.0000E+00  0.1600E+02  0.1600E+02
    -11.432  0.0000E+00  0.0000E+00  0.1600E+02  0.1600E+02
    -11.268  0.0000E+00  0.0000E+00  0.1600E+02  0.1600E+02
    -11.103  0.0000E+00  0.0000E+00  0.1600E+02  0.1600E+02
    -10.939  0.0000E+00  0.0000E+00  0.1600E+02  0.1600E+02
    -10.774  0.0000E+00  0.0000E+00  0.1600E+02  0.1600E+02
    -10.610  0.0000E+00  0.0000E+00  0.1600E+02  0.1600E+02
    -10.445  0.0000E+00  0.0000E+00  0.1600E+02  0.1600E+02
    -10.280  0.0000E+00  0.0000E+00  0.1600E+02  0.1600E+02
    -10.116  0.0000E+00  0.0000E+00  0.1600E+02  0.1600E+02
     -9.951  0.0000E+00  0.0000E+00  0.1600E+02  0.1600E+02
     -9.787  0.0000E+00  0.0000E+00  0.1600E+02  0.1600E+02
     -9.622  0.0000E+00  0.0000E+00  0.1600E+02  0.1600E+02
     -9.458  0.0000E+00  0.0000E+00  0.1600E+02  0.1600E+02
     -9.293  0.0000E+00  0.0000E+00  0.1600E+02  0.1600E+02
     -9.129  0.0000E+00  0.0000E+00  0.1600E+02  0.1600E+02
     -8.964  0.0000E+00  0.0000E+00  0.1600E+02  0.1600E+02
     -8.799  0.0000E+00  0.0000E+00  0.1600E+02  0.1600E+02
     -8.635  0.0000E+00  0.0000E+00  0.1600E+02  0.1600E+02
     -8.470  0.0000E+00  0.0000E+00  0.1600E+02  0.1600E+02
     -8.306  0.0000E+00  0.0000E+00  0.1600E+02  0.1600E+02
     -8.141  0.0000E+00  0.0000E+00  0.1600E+02  0.1600E+02
     -7.977  0.0000E+00  0.0000E+00  0.1600E+02  0.1600E+02
     -7.812  0.0000E+00  0.0000E+00  0.1600E+02  0.1600E+02
     -7.648  0.0000E+00  0.0000E+00  0.1600E+02  0.1600E+02
     -7.483  0.0000E+00  0.0000E+00  0.1600E+02  0.1600E+02
     -7.318  0.0000E+00  0.0000E+00  0.1600E+02  0.1600E+02
     -7.154  0.0000E+00  0.0000E+00  0.1600E+02  0.1600E+02
     -6.989  0.0000E+00  0.0000E+00  0.1600E+02  0.1600E+02
     -6.825  0.0000E+00  0.0000E+00  0.1600E+02  0.1600E+02
     -6.660  0.0000E+00  0.0000E+00  0.1600E+02  0.1600E+02
     -6.496  0.0000E+00  0.0000E+00  0.1600E+02  0.1600E+02
     -6.331  0.0000E+00  0.0000E+00  0.1600E+02  0.1600E+02
     -6.167  0.0000E+00  0.0000E+00  0.1600E+02  0.1600E+02
     -6.002  0.0000E+00  0.0000E+00  0.1600E+02  0.1600E+02
     -5.837  0.0000E+00  0.0000E+00  0.1600E+02  0.1600E+02
     -5.673  0.0000E+00  0.0000E+00  0.1600E+02  0.1600E+02
     -5.508  0.0000E+00  0.0000E+00  0.1600E+02  0.1600E+02
     -5.344  0.0000E+00  0.0000E+00  0.1600E+02  0.1600E+02
     -5.179  0.0000E+00  0.0000E+00  0.1600E+02  0.1600E+02
     -5.015  0.0000E+00  0.0000E+00  0.1600E+02  0.1600E+02
     -4.850  0.0000E+00  0.0000E+00  0.1600E+02  0.1600E+02
     -4.686  0.0000E+00  0.0000E+00  0.1600E+02  0.1600E+02
     -4.521  0.0000E+00  0.0000E+00  0.1600E+02  0.1600E+02
     -4.356  0.0000E+00  0.0000E+00  0.1600E+02  0.1600E+02
     -4.192  0.0000E+00  0.0000E+00  0.1600E+02  0.1600E+02
     -4.027  0.0000E+00  0.0000E+00  0.1600E+02  0.1600E+02
     -3.863  0.0000E+00  0.0000E+00  0.1600E+02  0.1600E+02
     -3.698  0.0000E+00  0.0000E+00  0.1600E+02  0.1600E+02
     -3.534  0.0000E+00  0.0000E+00  0.1600E+02  0.1600E+02
     -3.369  0.0000E+00  0.0000E+00  0.1600E+02  0.1600E+02
     -3.205  0.0000E+00  0.0000E+00  0.1600E+02  0.1600E+02
     -3.040  0.0000E+00  0.0000E+00  0.1600E+02  0.1600E+02
     -2.875  0.0000E+00  0.0000E+00  0.1600E+02  0.1600E+02
     -2.711  0.8007E-05  0.6967E-05  0.1600E+02  0.1600E+02
     -2.546  0.2245E-03  0.2193E-03  0.1600E+02  0.1600E+02
     -2.382  0.5669E-02  0.5526E-02  0.1600E+02  0.1600E+02
     -2.217  0.6990E-01  0.6889E-01  0.1601E+02  0.1601E+02
     -2.053  0.2072E+00  0.2062E+00  0.1605E+02  0.1605E+02
     -1.888  0.3125E+00  0.3118E+00  0.1610E+02  0.1610E+02
     -1.724  0.3943E+00  0.3935E+00  0.1616E+02  0.1616E+02
     -1.559  0.4493E+00  0.4488E+00  0.1624E+02  0.1624E+02
     -1.394  0.5405E+00  0.5401E+00  0.1633E+02  0.1633E+02
     -1.230  0.5769E+00  0.5762E+00  0.1642E+02  0.1642E+02
     -1.065  0.6662E+00  0.6655E+00  0.1653E+02  0.1653E+02
     -0.901  0.6791E+00  0.6790E+00  0.1664E+02  0.1664E+02
     -0.736  0.8120E+00  0.8110E+00  0.1678E+02  0.1678E+02
     -0.572  0.8028E+00  0.8027E+00  0.1691E+02  0.1691E+02
     -0.407  0.9214E+00  0.9201E+00  0.1706E+02  0.1706E+02
     -0.243  0.9684E+00  0.9680E+00  0.1722E+02  0.1722E+02
     -0.078  0.1023E+01  0.1022E+01  0.1739E+02  0.1739E+02
      0.087  0.1160E+01  0.1158E+01  0.1758E+02  0.1758E+02
      0.251  0.1202E+01  0.1203E+01  0.1778E+02  0.1778E+02
      0.416  0.1338E+01  0.1335E+01  0.1800E+02  0.1800E+02
      0.580  0.1505E+01  0.1505E+01  0.1825E+02  0.1825E+02
      0.745  0.1587E+01  0.1585E+01  0.1851E+02  0.1851E+02
      0.909  0.1611E+01  0.1612E+01  0.1877E+02  0.1877E+02
      1.074  0.1619E+01  0.1617E+01  0.1904E+02  0.1904E+02
      1.238  0.1726E+01  0.1722E+01  0.1933E+02  0.1932E+02
      1.403  0.2261E+01  0.2254E+01  0.1970E+02  0.1969E+02
      1.568  0.2753E+01  0.2753E+01  0.2015E+02  0.2015E+02
      1.732  0.2466E+01  0.2476E+01  0.2056E+02  0.2056E+02
      1.897  0.2407E+01  0.2409E+01  0.2096E+02  0.2095E+02
      2.061  0.3418E+01  0.3414E+01  0.2152E+02  0.2152E+02
      2.226  0.5301E+01  0.5296E+01  0.2239E+02  0.2239E+02
      2.390  0.5511E+01  0.5512E+01  0.2330E+02  0.2330E+02
      2.555  0.4548E+01  0.4551E+01  0.2405E+02  0.2405E+02
      2.719  0.3931E+01  0.3933E+01  0.2470E+02  0.2470E+02
      2.884  0.3545E+01  0.3549E+01  0.2529E+02  0.2528E+02
      3.048  0.3262E+01  0.3276E+01  0.2582E+02  0.2582E+02
      3.213  0.3007E+01  0.3018E+01  0.2632E+02  0.2632E+02
      3.378  0.2678E+01  0.2690E+01  0.2676E+02  0.2677E+02
      3.542  0.2333E+01  0.2358E+01  0.2715E+02  0.2716E+02
      3.707  0.2275E+01  0.2172E+01  0.2752E+02  0.2751E+02
      3.871  0.2203E+01  0.2038E+01  0.2789E+02  0.2785E+02
      4.036  0.6076E+00  0.7139E+00  0.2799E+02  0.2797E+02
      4.200  0.5929E-01  0.1642E+00  0.2800E+02  0.2800E+02
      4.365  0.1902E-02  0.1644E-01  0.2800E+02  0.2800E+02
      4.529  0.0000E+00  0.0000E+00  0.2800E+02  0.2800E+02
      4.694  0.0000E+00  0.0000E+00  0.2800E+02  0.2800E+02
      4.859  0.0000E+00  0.0000E+00  0.2800E+02  0.2800E+02
      5.023  0.0000E+00  0.0000E+00  0.2800E+02  0.2800E+02
      5.188  0.0000E+00  0.0000E+00  0.2800E+02  0.2800E+02
      5.352  0.0000E+00  0.0000E+00  0.2800E+02  0.2800E+02
      5.517  0.0000E+00  0.0000E+00  0.2800E+02  0.2800E+02
      5.681  0.0000E+00  0.0000E+00  0.2800E+02  0.2800E+02
      5.846  0.0000E+00  0.0000E+00  0.2800E+02  0.2800E+02
      6.010  0.0000E+00  0.0000E+00  0.2800E+02  0.2800E+02
      6.175  0.0000E+00  0.0000E+00  0.2800E+02  0.2800E+02
      6.340  0.0000E+00  0.0000E+00  0.2800E+02  0.2800E+02
      6.33957539    -43.02666519  301      1.51355200      1.00000000
    -43.027  0.0000E+00  0.0000E+00  0.0000E+00  0.0000E+00  0.0000E+00  0.0000E+00  0.0000E+00  0.0000E+00  0.0000E+00  0.0000E+00  0.0000E+00  0.0000E+00  0.0000E+00  0.0000E+00  0.0000E+00  0.0000E+00  0.0000E+00  0.0000E+00
    -42.862  0.0000E+00  0.0000E+00  0.0000E+00  0.0000E+00  0.0000E+00  0.0000E+00  0.0000E+00  0.0000E+00  0.0000E+00  0.0000E+00  0.0000E+00  0.0000E+00  0.0000E+00  0.0000E+00  0.0000E+00  0.0000E+00  0.0000E+00  0.0000E+00
    -42.698  0.0000E+00  0.0000E+00  0.0000E+00  0.0000E+00  0.0000E+00  0.0000E+00  0.0000E+00  0.0000E+00  0.0000E+00  0.0000E+00  0.0000E+00  0.0000E+00  0.0000E+00  0.0000E+00  0.0000E+00  0.0000E+00  0.0000E+00  0.0000E+00
    -42.533  0.0000E+00  0.0000E+00  0.0000E+00  0.0000E+00  0.0000E+00  0.0000E+00  0.0000E+00  0.0000E+00  0.0000E+00  0.0000E+00  0.0000E+00  0.0000E+00  0.0000E+00  0.0000E+00  0.0000E+00  0.0000E+00  0.0000E+00  0.0000E+00
    -42.368  0.0000E+00  0.0000E+00  0.0000E+00  0.0000E+00  0.0000E+00  0.0000E+00  0.0000E+00  0.0000E+00  0.0000E+00  0.0000E+00  0.0000E+00  0.0000E+00  0.0000E+00  0.0000E+00  0.0000E+00  0.0000E+00  0.0000E+00  0.0000E+00
    -42.204  0.0000E+00  0.0000E+00  0.0000E+00  0.0000E+00  0.0000E+00  0.0000E+00  0.0000E+00  0.0000E+00  0.0000E+00  0.0000E+00  0.0000E+00  0.0000E+00  0.0000E+00  0.0000E+00  0.0000E+00  0.0000E+00  0.0000E+00  0.0000E+00
    -42.039  0.0000E+00  0.0000E+00  0.0000E+00  0.0000E+00  0.0000E+00  0.0000E+00  0.0000E+00  0.0000E+00  0.0000E+00  0.0000E+00  0.0000E+00  0.0000E+00  0.0000E+00  0.0000E+00  0.0000E+00  0.0000E+00  0.0000E+00  0.0000E+00
    -41.875  0.0000E+00  0.0000E+00  0.0000E+00  0.0000E+00  0.0000E+00  0.0000E+00  0.0000E+00  0.0000E+00  0.0000E+00  0.0000E+00  0.0000E+00  0.0000E+00  0.0000E+00  0.0000E+00  0.0000E+00  0.0000E+00  0.0000E+00  0.0000E+00
    -41.710  0.0000E+00  0.0000E+00  0.0000E+00  0.0000E+00  0.0000E+00  0.0000E+00  0.0000E+00  0.0000E+00  0.0000E+00  0.0000E+00  0.0000E+00  0.0000E+00  0.0000E+00  0.0000E+00  0.0000E+00  0.0000E+00  0.0000E+00  0.0000E+00
    -41.546  0.0000E+00  0.0000E+00  0.0000E+00  0.0000E+00  0.0000E+00  0.0000E+00  0.0000E+00  0.0000E+00  0.0000E+00  0.0000E+00  0.0000E+00  0.0000E+00  0.0000E+00  0.0000E+00  0.0000E+00  0.0000E+00  0.0000E+00  0.0000E+00
    -41.381  0.0000E+00  0.0000E+00  0.0000E+00  0.0000E+00  0.0000E+00  0.0000E+00  0.0000E+00  0.0000E+00  0.0000E+00  0.0000E+00  0.0000E+00  0.0000E+00  0.0000E+00  0.0000E+00  0.0000E+00  0.0000E+00  0.0000E+00  0.0000E+00
    -41.217  0.8789E-03  0.8723E-03  0.1746E-10  0.1739E-10  0.1746E-10  0.1739E-10  0.1746E-10  0.1739E-10  0.6382E-11  0.6377E-11  0.6382E-11  0.6377E-11  0.3085E-11  0.3093E-11  0.6382E-11  0.6377E-11  0.3085E-11  0.3093E-11
    -41.052  0.2265E-01  0.2248E-01  0.4500E-09  0.4482E-09  0.4500E-09  0.4482E-09  0.4500E-09  0.4482E-09  0.1645E-09  0.1643E-09  0.1645E-09  0.1643E-09  0.7950E-10  0.7973E-10  0.1645E-09  0.1643E-09  0.7950E-10  0.7973E-10
    -40.887  0.5504E+00  0.5466E+00  0.1091E-07  0.1087E-07  0.1091E-07  0.1087E-07  0.1091E-07  0.1087E-07  0.3997E-08  0.3997E-08  0.3997E-08  0.3997E-08  0.1937E-08  0.1944E-08  0.3997E-08  0.3997E-08  0.1937E-08  0.1944E-08
    -40.723  0.3861E+01  0.3856E+01  0.7509E-07  0.7528E-07  0.7509E-07  0.7528E-07  0.7509E-07  0.7528E-07  0.2806E-07  0.2821E-07  0.2806E-07  0.2821E-07  0.1385E-07  0.1397E-07  0.2806E-07  0.2821E-07  0.1385E-07  0.1397E-07
    -40.558  0.1483E+01  0.1492E+01  0.2821E-07  0.2847E-07  0.2821E-07  0.2847E-07  0.2821E-07  0.2847E-07  0.1078E-07  0.1091E-07  0.1078E-07  0.1091E-07  0.5439E-08  0.5526E-08  0.1078E-07  0.1091E-07  0.5439E-08  0.5526E-08
    -40.394  0.7464E-01  0.7520E-01  0.1410E-08  0.1425E-08  0.1410E-08  0.1425E-08  0.1410E-08  0.1425E-08  0.5422E-09  0.5500E-09  0.5422E-09  0.5500E-09  0.2754E-09  0.2803E-09  0.5422E-09  0.5500E-09  0.2754E-09  0.2803E-09
    -40.229  0.0000E+00  0.0000E+00  0.0000E+00  0.0000E+00  0.0000E+00  0.0000E+00  0.0000E+00  0.0000E+00  0.0000E+00  0.0000E+00  0.0000E+00  0.0000E+00  0.0000E+00  0.0000E+00  0.0000E+00  0.0000E+00  0.0000E+00  0.0000E+00
    -40.065  0.0000E+00  0.0000E+00  0.0000E+00  0.0000E+00  0.0000E+00  0.0000E+00  0.0000E+00  0.0000E+00  0.0000E+00  0.0000E+00  0.0000E+00  0.0000E+00  0.0000E+00  0.0000E+00  0.0000E+00  0.0000E+00  0.0000E+00  0.0000E+00
    -39.900  0.0000E+00  0.0000E+00  0.0000E+00  0.0000E+00  0.0000E+00  0.0000E+00  0.0000E+00  0.0000E+00  0.0000E+00  0.0000E+00  0.0000E+00  0.0000E+00  0.0000E+00  0.0000E+00  0.0000E+00  0.0000E+00  0.0000E+00  0.0000E+00
    -39.736  0.0000E+00  0.0000E+00  0.0000E+00  0.0000E+00  0.0000E+00  0.0000E+00  0.0000E+00  0.0000E+00  0.0000E+00  0.0000E+00  0.0000E+00  0.0000E+00  0.0000E+00  0.0000E+00  0.0000E+00  0.0000E+00  0.0000E+00  0.0000E+00
    -39.571  0.0000E+00  0.0000E+00  0.0000E+00  0.0000E+00  0.0000E+00  0.0000E+00  0.0000E+00  0.0000E+00  0.0000E+00  0.0000E+00  0.0000E+00  0.0000E+00  0.0000E+00  0.0000E+00  0.0000E+00  0.0000E+00  0.0000E+00  0.0000E+00
    -39.406  0.0000E+00  0.0000E+00  0.0000E+00  0.0000E+00  0.0000E+00  0.0000E+00  0.0000E+00  0.0000E+00  0.0000E+00  0.0000E+00  0.0000E+00  0.0000E+00  0.0000E+00  0.0000E+00  0.0000E+00  0.0000E+00  0.0000E+00  0.0000E+00
    -39.242  0.0000E+00  0.0000E+00  0.0000E+00  0.0000E+00  0.0000E+00  0.0000E+00  0.0000E+00  0.0000E+00  0.0000E+00  0.0000E+00  0.0000E+00  0.0000E+00  0.0000E+00  0.0000E+00  0.0000E+00  0.0000E+00  0.0000E+00  0.0000E+00
    -39.077  0.0000E+00  0.0000E+00  0.0000E+00  0.0000E+00  0.0000E+00  0.0000E+00  0.0000E+00  0.0000E+00  0.0000E+00  0.0000E+00  0.0000E+00  0.0000E+00  0.0000E+00  0.0000E+00  0.0000E+00  0.0000E+00  0.0000E+00  0.0000E+00
    -38.913  0.0000E+00  0.0000E+00  0.0000E+00  0.0000E+00  0.0000E+00  0.0000E+00  0.0000E+00  0.0000E+00  0.0000E+00  0.0000E+00  0.0000E+00  0.0000E+00  0.0000E+00  0.0000E+00  0.0000E+00  0.0000E+00  0.0000E+00  0.0000E+00
    -38.748  0.0000E+00  0.0000E+00  0.0000E+00  0.0000E+00  0.0000E+00  0.0000E+00  0.0000E+00  0.0000E+00  0.0000E+00  0.0000E+00  0.0000E+00  0.0000E+00  0.0000E+00  0.0000E+00  0.0000E+00  0.0000E+00  0.0000E+00  0.0000E+00
    -38.584  0.0000E+00  0.0000E+00  0.0000E+00  0.0000E+00  0.0000E+00  0.0000E+00  0.0000E+00  0.0000E+00  0.0000E+00  0.0000E+00  0.0000E+00  0.0000E+00  0.0000E+00  0.0000E+00  0.0000E+00  0.0000E+00  0.0000E+00  0.0000E+00
    -38.419  0.0000E+00  0.0000E+00  0.0000E+00  0.0000E+00  0.0000E+00  0.0000E+00  0.0000E+00  0.0000E+00  0.0000E+00  0.0000E+00  0.0000E+00  0.0000E+00  0.0000E+00  0.0000E+00  0.0000E+00  0.0000E+00  0.0000E+00  0.0000E+00
    -38.255  0.0000E+00  0.0000E+00  0.0000E+00  0.0000E+00  0.0000E+00  0.0000E+00  0.0000E+00  0.0000E+00  0.0000E+00  0.0000E+00  0.0000E+00  0.0000E+00  0.0000E+00  0.0000E+00  0.0000E+00  0.0000E+00  0.0000E+00  0.0000E+00
    -38.090  0.0000E+00  0.0000E+00  0.0000E+00  0.0000E+00  0.0000E+00  0.0000E+00  0.0000E+00  0.0000E+00  0.0000E+00  0.0000E+00  0.0000E+00  0.0000E+00  0.0000E+00  0.0000E+00  0.0000E+00  0.0000E+00  0.0000E+00  0.0000E+00
    -37.925  0.0000E+00  0.0000E+00  0.0000E+00  0.0000E+00  0.0000E+00  0.0000E+00  0.0000E+00  0.0000E+00  0.0000E+00  0.0000E+00  0.0000E+00  0.0000E+00  0.0000E+00  0.0000E+00  0.0000E+00  0.0000E+00  0.0000E+00  0.0000E+00
    -37.761  0.0000E+00  0.0000E+00  0.0000E+00  0.0000E+00  0.0000E+00  0.0000E+00  0.0000E+00  0.0000E+00  0.0000E+00  0.0000E+00  0.0000E+00  0.0000E+00  0.0000E+00  0.0000E+00  0.0000E+00  0.0000E+00  0.0000E+00  0.0000E+00
    -37.596  0.0000E+00  0.0000E+00  0.0000E+00  0.0000E+00  0.0000E+00  0.0000E+00  0.0000E+00  0.0000E+00  0.0000E+00  0.0000E+00  0.0000E+00  0.0000E+00  0.0000E+00  0.0000E+00  0.0000E+00  0.0000E+00  0.0000E+00  0.0000E+00
    -37.432  0.0000E+00  0.0000E+00  0.0000E+00  0.0000E+00  0.0000E+00  0.0000E+00  0.0000E+00  0.0000E+00  0.0000E+00  0.0000E+00  0.0000E+00  0.0000E+00  0.0000E+00  0.0000E+00  0.0000E+00  0.0000E+00  0.0000E+00  0.0000E+00
    -37.267  0.0000E+00  0.0000E+00  0.0000E+00  0.0000E+00  0.0000E+00  0.0000E+00  0.0000E+00  0.0000E+00  0.0000E+00  0.0000E+00  0.0000E+00  0.0000E+00  0.0000E+00  0.0000E+00  0.0000E+00  0.0000E+00  0.0000E+00  0.0000E+00
    -37.103  0.0000E+00  0.0000E+00  0.0000E+00  0.0000E+00  0.0000E+00  0.0000E+00  0.0000E+00  0.0000E+00  0.0000E+00  0.0000E+00  0.0000E+00  0.0000E+00  0.0000E+00  0.0000E+00  0.0000E+00  0.0000E+00  0.0000E+00  0.0000E+00
    -36.938  0.0000E+00  0.0000E+00  0.0000E+00  0.0000E+00  0.0000E+00  0.0000E+00  0.0000E+00  0.0000E+00  0.0000E+00  0.0000E+00  0.0000E+00  0.0000E+00  0.0000E+00  0.0000E+00  0.0000E+00  0.0000E+00  0.0000E+00  0.0000E+00
    -36.774  0.0000E+00  0.0000E+00  0.0000E+00  0.0000E+00  0.0000E+00  0.0000E+00  0.0000E+00  0.0000E+00  0.0000E+00  0.0000E+00  0.0000E+00  0.0000E+00  0.0000E+00  0.0000E+00  0.0000E+00  0.0000E+00  0.0000E+00  0.0000E+00
    -36.609  0.0000E+00  0.0000E+00  0.0000E+00  0.0000E+00  0.0000E+00  0.0000E+00  0.0000E+00  0.0000E+00  0.0000E+00  0.0000E+00  0.0000E+00  0.0000E+00  0.0000E+00  0.0000E+00  0.0000E+00  0.0000E+00  0.0000E+00  0.0000E+00
    -36.444  0.0000E+00  0.0000E+00  0.0000E+00  0.0000E+00  0.0000E+00  0.0000E+00  0.0000E+00  0.0000E+00  0.0000E+00  0.0000E+00  0.0000E+00  0.0000E+00  0.0000E+00  0.0000E+00  0.0000E+00  0.0000E+00  0.0000E+00  0.0000E+00
    -36.280  0.0000E+00  0.0000E+00  0.0000E+00  0.0000E+00  0.0000E+00  0.0000E+00  0.0000E+00  0.0000E+00  0.0000E+00  0.0000E+00  0.0000E+00  0.0000E+00  0.0000E+00  0.0000E+00  0.0000E+00  0.0000E+00  0.0000E+00  0.0000E+00
    -36.115  0.0000E+00  0.0000E+00  0.0000E+00  0.0000E+00  0.0000E+00  0.0000E+00  0.0000E+00  0.0000E+00  0.0000E+00  0.0000E+00  0.0000E+00  0.0000E+00  0.0000E+00  0.0000E+00  0.0000E+00  0.0000E+00  0.0000E+00  0.0000E+00
    -35.951  0.0000E+00  0.0000E+00  0.0000E+00  0.0000E+00  0.0000E+00  0.0000E+00  0.0000E+00  0.0000E+00  0.0000E+00  0.0000E+00  0.0000E+00  0.0000E+00  0.0000E+00  0.0000E+00  0.0000E+00  0.0000E+00  0.0000E+00  0.0000E+00
    -35.786  0.0000E+00  0.0000E+00  0.0000E+00  0.0000E+00  0.0000E+00  0.0000E+00  0.0000E+00  0.0000E+00  0.0000E+00  0.0000E+00  0.0000E+00  0.0000E+00  0.0000E+00  0.0000E+00  0.0000E+00  0.0000E+00  0.0000E+00  0.0000E+00
    -35.622  0.0000E+00  0.0000E+00  0.0000E+00  0.0000E+00  0.0000E+00  0.0000E+00  0.0000E+00  0.0000E+00  0.0000E+00  0.0000E+00  0.0000E+00  0.0000E+00  0.0000E+00  0.0000E+00  0.0000E+00  0.0000E+00  0.0000E+00  0.0000E+00
    -35.457  0.0000E+00  0.0000E+00  0.0000E+00  0.0000E+00  0.0000E+00  0.0000E+00  0.0000E+00  0.0000E+00  0.0000E+00  0.0000E+00  0.0000E+00  0.0000E+00  0.0000E+00  0.0000E+00  0.0000E+00  0.0000E+00  0.0000E+00  0.0000E+00
    -35.293  0.0000E+00  0.0000E+00  0.0000E+00  0.0000E+00  0.0000E+00  0.0000E+00  0.0000E+00  0.0000E+00  0.0000E+00  0.0000E+00  0.0000E+00  0.0000E+00  0.0000E+00  0.0000E+00  0.0000E+00  0.0000E+00  0.0000E+00  0.0000E+00
    -35.128  0.0000E+00  0.0000E+00  0.0000E+00  0.0000E+00  0.0000E+00  0.0000E+00  0.0000E+00  0.0000E+00  0.0000E+00  0.0000E+00  0.0000E+00  0.0000E+00  0.0000E+00  0.0000E+00  0.0000E+00  0.0000E+00  0.0000E+00  0.0000E+00
    -34.964  0.0000E+00  0.0000E+00  0.0000E+00  0.0000E+00  0.0000E+00  0.0000E+00  0.0000E+00  0.0000E+00  0.0000E+00  0.0000E+00  0.0000E+00  0.0000E+00  0.0000E+00  0.0000E+00  0.0000E+00  0.0000E+00  0.0000E+00  0.0000E+00
    -34.799  0.0000E+00  0.0000E+00  0.0000E+00  0.0000E+00  0.0000E+00  0.0000E+00  0.0000E+00  0.0000E+00  0.0000E+00  0.0000E+00  0.0000E+00  0.0000E+00  0.0000E+00  0.0000E+00  0.0000E+00  0.0000E+00  0.0000E+00  0.0000E+00