   4   4   1   0
  0.4481303E+02  0.5638386E-09  0.5638386E-09  0.5638386E-09  0.5000000E-15
  1.000000000000000E-004
  CAR 
 unknown system                          
      6.54417030    -42.66793779  301      1.72685785      1.00000000
    -42.668  0.0000E+00  0.0000E+00  0.0000E+00  0.0000E+00
    -42.504  0.0000E+00  0.0000E+00  0.0000E+00  0.0000E+00
    -42.340  0.0000E+00  0.0000E+00  0.0000E+00  0.0000E+00
    -42.176  0.0000E+00  0.0000E+00  0.0000E+00  0.0000E+00
    -42.012  0.0000E+00  0.0000E+00  0.0000E+00  0.0000E+00
    -41.848  0.0000E+00  0.0000E+00  0.0000E+00  0.0000E+00
    -41.684  0.0000E+00  0.0000E+00  0.0000E+00  0.0000E+00
    -41.520  0.0000E+00  0.0000E+00  0.0000E+00  0.0000E+00
    -41.356  0.0000E+00  0.0000E+00  0.0000E+00  0.0000E+00
    -41.192  0.0000E+00  0.0000E+00  0.0000E+00  0.0000E+00
    -41.028  0.0000E+00  0.0000E+00  0.0000E+00  0.0000E+00
    -40.863  0.3494E-02  0.3455E-02  0.5732E-03  0.5668E-03
    -40.699  0.8910E-01  0.8811E-01  0.1519E-01  0.1502E-01
    -40.535  0.2151E+01  0.2130E+01  0.3681E+00  0.3644E+00
    -40.371  0.1553E+02  0.1550E+02  0.2916E+01  0.2907E+01
    -40.207  0.6272E+01  0.6323E+01  0.3945E+01  0.3944E+01
    -40.043  0.3236E+00  0.3272E+00  0.3998E+01  0.3998E+01
    -39.879  0.0000E+00  0.0000E+00  0.4000E+01  0.4000E+01
    -39.715  0.0000E+00  0.0000E+00  0.4000E+01  0.4000E+01
    -39.551  0.0000E+00  0.0000E+00  0.4000E+01  0.4000E+01
    -39.387  0.0000E+00  0.0000E+00  0.4000E+01  0.4000E+01
    -39.223  0.0000E+00  0.0000E+00  0.4000E+01  0.4000E+01
    -39.059  0.0000E+00  0.0000E+00  0.4000E+01  0.4000E+01
    -38.895  0.0000E+00  0.0000E+00  0.4000E+01  0.4000E+01
    -38.731  0.0000E+00  0.0000E+00  0.4000E+01  0.4000E+01
    -38.567  0.0000E+00  0.0000E+00  0.4000E+01  0.4000E+01
    -38.403  0.0000E+00  0.0000E+00  0.4000E+01  0.4000E+01
    -38.239  0.0000E+00  0.0000E+00  0.4000E+01  0.4000E+01
    -38.075  0.0000E+00  0.0000E+00  0.4000E+01  0.4000E+01
    -37.911  0.0000E+00  0.0000E+00  0.4000E+01  0.4000E+01
    -37.747  0.0000E+00  0.0000E+00  0.4000E+01  0.4000E+01
    -37.583  0.0000E+00  0.0000E+00  0.4000E+01  0.4000E+01
    -37.419  0.0000E+00  0.0000E+00  0.4000E+01  0.4000E+01
    -37.255  0.0000E+00  0.0000E+00  0.4000E+01  0.4000E+01
    -37.091  0.0000E+00  0.0000E+00  0.4000E+01  0.4000E+01
    -36.927  0.0000E+00  0.0000E+00  0.4000E+01  0.4000E+01
    -36.762  0.0000E+00  0.0000E+00  0.4000E+01  0.4000E+01
    -36.598  0.0000E+00  0.0000E+00  0.4000E+01  0.4000E+01
    -36.434  0.0000E+00  0.0000E+00  0.4000E+01  0.4000E+01
    -36.270  0.0000E+00  0.0000E+00  0.4000E+01  0.4000E+01
    -36.106  0.0000E+00  0.0000E+00  0.4000E+01  0.4000E+01
    -35.942  0.0000E+00  0.0000E+00  0.4000E+01  0.4000E+01
    -35.778  0.0000E+00  0.0000E+00  0.4000E+01  0.4000E+01
    -35.614  0.0000E+00  0.0000E+00  0.4000E+01  0.4000E+01
    -35.450  0.0000E+00  0.0000E+00  0.4000E+01  0.4000E+01
    -35.286  0.0000E+00  0.0000E+00  0.4000E+01  0.4000E+01
    -35.122  0.0000E+00  0.0000E+00  0.4000E+01  0.4000E+01
    -34.958  0.0000E+00  0.0000E+00  0.4000E+01  0.4000E+01
    -34.794  0.0000E+00  0.0000E+00  0.4000E+01  0.4000E+01
    -34.630  0.0000E+00  0.0000E+00  0.4000E+01  0.4000E+01
    -34.466  0.0000E+00  0.0000E+00  0.4000E+01  0.4000E+01
    -34.302  0.0000E+00  0.0000E+00  0.4000E+01  0.4000E+01
    -34.138  0.0000E+00  0.0000E+00  0.4000E+01  0.4000E+01
    -33.974  0.0000E+00  0.0000E+00  0.4000E+01  0.4000E+01
    -33.810  0.0000E+00  0.0000E+00  0.4000E+01  0.4000E+01
    -33.646  0.0000E+00  0.0000E+00  0.4000E+01  0.4000E+01
    -33.482  0.0000E+00  0.0000E+00  0.4000E+01  0.4000E+01
    -33.318  0.0000E+00  0.0000E+00  0.4000E+01  0.4000E+01
    -33.154  0.0000E+00  0.0000E+00  0.4000E+01  0.4000E+01
    -32.990  0.0000E+00  0.0000E+00  0.4000E+01  0.4000E+01
    -32.826  0.0000E+00  0.0000E+00  0.4000E+01  0.4000E+01
    -32.661  0.0000E+00  0.0000E+00  0.4000E+01  0.4000E+01
    -32.497  0.0000E+00  0.0000E+00  0.4000E+01  0.4000E+01
    -32.333  0.0000E+00  0.0000E+00  0.4000E+01  0.4000E+01
    -32.169  0.0000E+00  0.0000E+00  0.4000E+01  0.4000E+01
    -32.005  0.0000E+00  0.0000E+00  0.4000E+01  0.4000E+01
    -31.841  0.0000E+00  0.0000E+00  0.4000E+01  0.4000E+01
    -31.677  0.0000E+00  0.0000E+00  0.4000E+01  0.4000E+01
    -31.513  0.0000E+00  0.0000E+00  0.4000E+01  0.4000E+01
    -31.349  0.0000E+00  0.0000E+00  0.4000E+01  0.4000E+01
    -31.185  0.0000E+00  0.0000E+00  0.4000E+01  0.4000E+01
    -31.021  0.0000E+00  0.0000E+00  0.4000E+01  0.4000E+01
    -30.857  0.0000E+00  0.0000E+00  0.4000E+01  0.4000E+01
    -30.693  0.0000E+00  0.0000E+00  0.4000E+01  0.4000E+01
    -30.529  0.0000E+00  0.0000E+00  0.4000E+01  0.4000E+01
    -30.365  0.0000E+00  0.0000E+00  0.4000E+01  0.4000E+01
    -30.201  0.0000E+00  0.0000E+00  0.4000E+01  0.4000E+01
    -30.037  0.0000E+00  0.0000E+00  0.4000E+01  0.4000E+01
    -29.873  0.0000E+00  0.0000E+00  0.4000E+01  0.4000E+01
    -29.709  0.0000E+00  0.0000E+00  0.4000E+01  0.4000E+01
    -29.545  0.0000E+00  0.0000E+00  0.4000E+01  0.4000E+01
    -29.381  0.0000E+00  0.0000E+00  0.4000E+01  0.4000E+01
    -29.217  0.0000E+00  0.0000E+00  0.4000E+01  0.4000E+01
    -29.053  0.0000E+00  0.0000E+00  0.4000E+01  0.4000E+01
    -28.889  0.0000E+00  0.0000E+00  0.4000E+01  0.4000E+01
    -28.725  0.0000E+00  0.0000E+00  0.4000E+01  0.4000E+01
    -28.560  0.0000E+00  0.0000E+00  0.4000E+01  0.4000E+01
    -28.396  0.0000E+00  0.0000E+00  0.4000E+01  0.4000E+01
    -28.232  0.0000E+00  0.0000E+00  0.4000E+01  0.4000E+01
    -28.068  0.0000E+00  0.0000E+00  0.4000E+01  0.4000E+01
    -27.904  0.0000E+00  0.0000E+00  0.4000E+01  0.4000E+01
    -27.740  0.0000E+00  0.0000E+00  0.4000E+01  0.4000E+01
    -27.576  0.0000E+00  0.0000E+00  0.4000E+01  0.4000E+01
    -27.412  0.0000E+00  0.0000E+00  0.4000E+01  0.4000E+01
    -27.248  0.0000E+00  0.0000E+00  0.4000E+01  0.4000E+01
    -27.084  0.0000E+00  0.0000E+00  0.4000E+01  0.4000E+01
    -26.920  0.0000E+00  0.0000E+00  0.4000E+01  0.4000E+01
    -26.756  0.0000E+00  0.0000E+00  0.4000E+01  0.4000E+01
    -26.592  0.0000E+00  0.0000E+00  0.4000E+01  0.4000E+01
    -26.428  0.0000E+00  0.0000E+00  0.4000E+01  0.4000E+01
    -26.264  0.0000E+00  0.0000E+00  0.4000E+01  0.4000E+01
    -26.100  0.0000E+00  0.0000E+00  0.4000E+01  0.4000E+01
    -25.936  0.0000E+00  0.0000E+00  0.4000E+01  0.4000E+01
    -25.772  0.0000E+00  0.0000E+00  0.4000E+01  0.4000E+01
    -25.608  0.0000E+00  0.0000E+00  0.4000E+01  0.4000E+01
    -25.444  0.0000E+00  0.0000E+00  0.4000E+01  0.4000E+01
    -25.280  0.0000E+00  0.0000E+00  0.4000E+01  0.4000E+01
    -25.116  0.0000E+00  0.0000E+00  0.4000E+01  0.4000E+01
    -24.952  0.0000E+00  0.0000E+00  0.4000E+01  0.4000E+01
    -24.788  0.0000E+00  0.0000E+00  0.4000E+01  0.4000E+01
    -24.623  0.0000E+00  0.0000E+00  0.4000E+01  0.4000E+01
    -24.459  0.0000E+00  0.0000E+00  0.4000E+01  0.4000E+01
    -24.295  0.0000E+00  0.0000E+00  0.4000E+01  0.4000E+01
    -24.131  0.0000E+00  0.0000E+00  0.4000E+01  0.4000E+01
    -23.967  0.0000E+00  0.0000E+00  0.4000E+01  0.4000E+01
    -23.803  0.0000E+00  0.0000E+00  0.4000E+01  0.4000E+01
    -23.639  0.0000E+00  0.0000E+00  0.4000E+01  0.4000E+01
    -23.475  0.0000E+00  0.0000E+00  0.4000E+01  0.4000E+01
    -23.311  0.0000E+00  0.0000E+00  0.4000E+01  0.4000E+01
    -23.147  0.0000E+00  0.0000E+00  0.4000E+01  0.4000E+01
    -22.983  0.0000E+00  0.0000E+00  0.4000E+01  0.4000E+01
    -22.819  0.0000E+00  0.0000E+00  0.4000E+01  0.4000E+01
    -22.655  0.0000E+00  0.0000E+00  0.4000E+01  0.4000E+01
    -22.491  0.0000E+00  0.0000E+00  0.4000E+01  0.4000E+01
    -22.327  0.0000E+00  0.0000E+00  0.4000E+01  0.4000E+01
    -22.163  0.0000E+00  0.0000E+00  0.4000E+01  0.4000E+01
    -21.999  0.2504E-03  0.2435E-03  0.4000E+01  0.4000E+01
    -21.835  0.1467E-01  0.1451E-01  0.4002E+01  0.4002E+01
    -21.671  0.3790E+00  0.3748E+00  0.4065E+01  0.4064E+01
    -21.507  0.8458E+01  0.8379E+01  0.5452E+01  0.5438E+01
    -21.343  0.4582E+02  0.4575E+02  0.1297E+02  0.1294E+02
    -21.179  0.1751E+02  0.1764E+02  0.1584E+02  0.1584E+02
    -21.015  0.8142E+00  0.8248E+00  0.1599E+02  0.1599E+02
    -20.851  0.0000E+00  0.0000E+00  0.1600E+02  0.1600E+02
    -20.687  0.0000E+00  0.0000E+00  0.1600E+02  0.1600E+02
    -20.522  0.0000E+00  0.0000E+00  0.1600E+02  0.1600E+02
    -20.358  0.0000E+00  0.0000E+00  0.1600E+02  0.1600E+02
    -20.194  0.0000E+00  0.0000E+00  0.1600E+02  0.1600E+02
    -20.030  0.0000E+00  0.0000E+00  0.1600E+02  0.1600E+02
    -19.866  0.0000E+00  0.0000E+00  0.1600E+02  0.1600E+02
    -19.702  0.0000E+00  0.0000E+00  0.1600E+02  0.1600E+02
    -19.538  0.0000E+00  0.0000E+00  0.1600E+02  0.1600E+02
    -19.374  0.0000E+00  0.0000E+00  0.1600E+02  0.1600E+02
    -19.210  0.0000E+00  0.0000E+00  0.1600E+02  0.1600E+02
    -19.046  0.0000E+00  0.0000E+00  0.1600E+02  0.1600E+02
    -18.882  0.0000E+00  0.0000E+00  0.1600E+02  0.1600E+02
    -18.718  0.0000E+00  0.0000E+00  0.1600E+02  0.1600E+02
    -18.554  0.0000E+00  0.0000E+00  0.1600E+02  0.1600E+02
    -18.390  0.0000E+00  0.0000E+00  0.1600E+02  0.1600E+02
    -18.226  0.0000E+00  0.0000E+00  0.1600E+02  0.1600E+02
    -18.062  0.0000E+00  0.0000E+00  0.1600E+02  0.1600E+02
    -17.898  0.0000E+00  0.0000E+00  0.1600E+02  0.1600E+02
    -17.734  0.0000E+00  0.0000E+00  0.1600E+02  0.1600E+02
    -17.570  0.0000E+00  0.0000E+00  0.1600E+02  0.1600E+02
    -17.406  0.0000E+00  0.0000E+00  0.1600E+02  0.1600E+02
    -17.242  0.0000E+00  0.0000E+00  0.1600E+02  0.1600E+02
    -17.078  0.0000E+00  0.0000E+00  0.1600E+02  0.1600E+02
    -16.914  0.0000E+00  0.0000E+00  0.1600E+02  0.1600E+02
    -16.750  0.0000E+00  0.0000E+00  0.1600E+02  0.1600E+02
    -16.586  0.0000E+00  0.0000E+00  0.1600E+02  0.1600E+02
    -16.421  0.0000E+00  0.0000E+00  0.1600E+02  0.1600E+02
    -16.257  0.0000E+00  0.0000E+00  0.1600E+02  0.1600E+02
    -16.093  0.0000E+00  0.0000E+00  0.1600E+02  0.1600E+02
    -15.929  0.0000E+00  0.0000E+00  0.1600E+02  0.1600E+02
    -15.765  0.0000E+00  0.0000E+00  0.1600E+02  0.1600E+02
    -15.601  0.0000E+00  0.0000E+00  0.1600E+02  0.1600E+02
    -15.437  0.0000E+00  0.0000E+00  0.1600E+02  0.1600E+02
    -15.273  0.0000E+00  0.0000E+00  0.1600E+02  0.1600E+02
    -15.109  0.0000E+00  0.0000E+00  0.1600E+02  0.1600E+02
    -14.945  0.0000E+00  0.0000E+00  0.1600E+02  0.1600E+02
    -14.781  0.0000E+00  0.0000E+00  0.1600E+02  0.1600E+02
    -14.617  0.0000E+00  0.0000E+00  0.1600E+02  0.1600E+02
    -14.453  0.0000E+00  0.0000E+00  0.1600E+02  0.1600E+02
    -14.289  0.0000E+00  0.0000E+00  0.1600E+02  0.1600E+02
    -14.125  0.0000E+00  0.0000E+00  0.1600E+02  0.1600E+02
    -13.961  0.0000E+00  0.0000E+00  0.1600E+02  0.1600E+02
    -13.797  0.0000E+00  0.0000E+00  0.1600E+02  0.1600E+02
    -13.633  0.0000E+00  0.0000E+00  0.1600E+02  0.1600E+02
    -13.469  0.0000E+00  0.0000E+00  0.1600E+02  0.1600E+02
    -13.305  0.0000E+00  0.0000E+00  0.1600E+02  0.1600E+02
    -13.141  0.0000E+00  0.0000E+00  0.1600E+02  0.1600E+02
    -12.977  0.0000E+00  0.0000E+00  0.1600E+02  0.1600E+02
    -12.813  0.0000E+00  0.0000E+00  0.1600E+02  0.1600E+02
    -12.649  0.0000E+00  0.0000E+00  0.1600E+02  0.1600E+02
    -12.485  0.0000E+00  0.0000E+00  0.1600E+02  0.1600E+02
    -12.320  0.0000E+00  0.0000E+00  0.1600E+02  0.1600E+02
    -12.156  0.0000E+00  0.0000E+00  0.1600E+02  0.1600E+02
    -11.992  0.0000E+00  0.0000E+00  0.1600E+02  0.1600E+02
    -11.828  0.0000E+00  0.0000E+00  0.1600E+02  0.1600E+02
    -11.664  0.0000E+00  0.0000E+00  0.1600E+02  0.1600E+02
    -11.500  0.0000E+00  0.0000E+00  0.1600E+02  0.1600E+02
    -11.336  0.0000E+00  0.0000E+00  0.1600E+02  0.1600E+02
    -11.172  0.0000E+00  0.0000E+00  0.1600E+02  0.1600E+02
    -11.008  0.0000E+00  0.0000E+00  0.1600E+02  0.1600E+02
    -10.844  0.0000E+00  0.0000E+00  0.1600E+02  0.1600E+02
    -10.680  0.0000E+00  0.0000E+00  0.1600E+02  0.1600E+02
    -10.516  0.0000E+00  0.0000E+00  0.1600E+02  0.1600E+02
    -10.352  0.0000E+00  0.0000E+00  0.1600E+02  0.1600E+02
    -10.188  0.0000E+00  0.0000E+00  0.1600E+02  0.1600E+02
    -10.024  0.0000E+00  0.0000E+00  0.1600E+02  0.1600E+02
     -9.860  0.0000E+00  0.0000E+00  0.1600E+02  0.1600E+02
     -9.696  0.0000E+00  0.0000E+00  0.1600E+02  0.1600E+02
     -9.532  0.0000E+00  0.0000E+00  0.1600E+02  0.1600E+02
     -9.368  0.0000E+00  0.0000E+00  0.1600E+02  0.1600E+02
     -9.204  0.0000E+00  0.0000E+00  0.1600E+02  0.1600E+02
     -9.040  0.0000E+00  0.0000E+00  0.1600E+02  0.1600E+02
     -8.876  0.0000E+00  0.0000E+00  0.1600E+02  0.1600E+02
     -8.712  0.0000E+00  0.0000E+00  0.1600E+02  0.1600E+02
     -8.548  0.0000E+00  0.0000E+00  0.1600E+02  0.1600E+02
     -8.384  0.0000E+00  0.0000E+00  0.1600E+02  0.1600E+02
     -8.219  0.0000E+00  0.0000E+00  0.1600E+02  0.1600E+02
     -8.055  0.0000E+00  0.0000E+00  0.1600E+02  0.1600E+02
     -7.891  0.0000E+00  0.0000E+00  0.1600E+02  0.1600E+02
     -7.727  0.0000E+00  0.0000E+00  0.1600E+02  0.1600E+02
     -7.563  0.0000E+00  0.0000E+00  0.1600E+02  0.1600E+02
     -7.399  0.0000E+00  0.0000E+00  0.1600E+02  0.1600E+02
     -7.235  0.0000E+00  0.0000E+00  0.1600E+02  0.1600E+02
     -7.071  0.0000E+00  0.0000E+00  0.1600E+02  0.1600E+02
     -6.907  0.0000E+00  0.0000E+00  0.1600E+02  0.1600E+02
     -6.743  0.0000E+00  0.0000E+00  0.1600E+02  0.1600E+02
     -6.579  0.0000E+00  0.0000E+00  0.1600E+02  0.1600E+02
     -6.415  0.0000E+00  0.0000E+00  0.1600E+02  0.1600E+02
     -6.251  0.0000E+00  0.0000E+00  0.1600E+02  0.1600E+02
     -6.087  0.0000E+00  0.0000E+00  0.1600E+02  0.1600E+02
     -5.923  0.0000E+00  0.0000E+00  0.1600E+02  0.1600E+02
     -5.759  0.0000E+00  0.0000E+00  0.1600E+02  0.1600E+02
     -5.595  0.0000E+00  0.0000E+00  0.1600E+02  0.1600E+02
     -5.431  0.0000E+00  0.0000E+00  0.1600E+02  0.1600E+02
     -5.267  0.0000E+00  0.0000E+00  0.1600E+02  0.1600E+02
     -5.103  0.0000E+00  0.0000E+00  0.1600E+02  0.1600E+02
     -4.939  0.0000E+00  0.0000E+00  0.1600E+02  0.1600E+02
     -4.775  0.0000E+00  0.0000E+00  0.1600E+02  0.1600E+02
     -4.611  0.0000E+00  0.0000E+00  0.1600E+02  0.1600E+02
     -4.447  0.0000E+00  0.0000E+00  0.1600E+02  0.1600E+02
     -4.282  0.0000E+00  0.0000E+00  0.1600E+02  0.1600E+02
     -4.118  0.0000E+00  0.0000E+00  0.1600E+02  0.1600E+02
     -3.954  0.0000E+00  0.0000E+00  0.1600E+02  0.1600E+02
     -3.790  0.0000E+00  0.0000E+00  0.1600E+02  0.1600E+02
     -3.626  0.0000E+00  0.0000E+00  0.1600E+02  0.1600E+02
     -3.462  0.0000E+00  0.0000E+00  0.1600E+02  0.1600E+02
     -3.298  0.0000E+00  0.0000E+00  0.1600E+02  0.1600E+02
     -3.134  0.0000E+00  0.0000E+00  0.1600E+02  0.1600E+02
     -2.970  0.0000E+00  0.0000E+00  0.1600E+02  0.1600E+02
     -2.806  0.0000E+00  0.0000E+00  0.1600E+02  0.1600E+02
     -2.642  0.2917E-05  0.2772E-05  0.1600E+02  0.1600E+02
     -2.478  0.9277E-04  0.8814E-04  0.1600E+02  0.1600E+02
     -2.314  0.2418E-02  0.2300E-02  0.1600E+02  0.1600E+02
     -2.150  0.3986E-01  0.3853E-01  0.1601E+02  0.1601E+02
     -1.986  0.1626E+00  0.1606E+00  0.1603E+02  0.1603E+02
     -1.822  0.2698E+00  0.2684E+00  0.1608E+02  0.1608E+02
     -1.658  0.3423E+00  0.3411E+00  0.1613E+02  0.1613E+02
     -1.494  0.4166E+00  0.4161E+00  0.1620E+02  0.1620E+02
     -1.330  0.4786E+00  0.4767E+00  0.1628E+02  0.1628E+02
     -1.166  0.5251E+00  0.5248E+00  0.1637E+02  0.1637E+02
     -1.002  0.5927E+00  0.5914E+00  0.1646E+02  0.1646E+02
     -0.838  0.6643E+00  0.6640E+00  0.1657E+02  0.1657E+02
     -0.674  0.6772E+00  0.6751E+00  0.1669E+02  0.1668E+02
     -0.510  0.8028E+00  0.8029E+00  0.1682E+02  0.1682E+02
     -0.346  0.7876E+00  0.7862E+00  0.1695E+02  0.1694E+02
     -0.181  0.9246E+00  0.9238E+00  0.1710E+02  0.1710E+02
     -0.017  0.9546E+00  0.9533E+00  0.1726E+02  0.1725E+02
      0.147  0.1000E+01  0.1001E+01  0.1742E+02  0.1742E+02
      0.311  0.1160E+01  0.1158E+01  0.1761E+02  0.1761E+02
      0.475  0.1169E+01  0.1170E+01  0.1780E+02  0.1780E+02
      0.639  0.1357E+01  0.1354E+01  0.1803E+02  0.1802E+02
      0.803  0.1487E+01  0.1488E+01  0.1827E+02  0.1827E+02
      0.967  0.1586E+01  0.1582E+01  0.1853E+02  0.1853E+02
      1.131  0.1590E+01  0.1591E+01  0.1879E+02  0.1879E+02
      1.295  0.1651E+01  0.1646E+01  0.1906E+02  0.1906E+02
      1.459  0.1736E+01  0.1731E+01  0.1935E+02  0.1934E+02
      1.623  0.2228E+01  0.2212E+01  0.1972E+02  0.1971E+02
      1.787  0.2773E+01  0.2774E+01  0.2017E+02  0.2016E+02
      1.951  0.2347E+01  0.2364E+01  0.2056E+02  0.2055E+02
      2.115  0.2336E+01  0.2337E+01  0.2094E+02  0.2094E+02
      2.279  0.3442E+01  0.3434E+01  0.2151E+02  0.2150E+02
      2.443  0.4988E+01  0.4984E+01  0.2233E+02  0.2232E+02
      2.607  0.5266E+01  0.5264E+01  0.2319E+02  0.2318E+02
      2.771  0.4661E+01  0.4668E+01  0.2396E+02  0.2395E+02
      2.935  0.3932E+01  0.3937E+01  0.2461E+02  0.2460E+02
      3.099  0.3508E+01  0.3512E+01  0.2518E+02  0.2518E+02
      3.263  0.3206E+01  0.3210E+01  0.2571E+02  0.2571E+02
      3.427  0.2909E+01  0.2915E+01  0.2619E+02  0.2619E+02
      3.591  0.2643E+01  0.2643E+01  0.2662E+02  0.2662E+02
      3.755  0.2423E+01  0.2442E+01  0.2702E+02  0.2702E+02
      3.920  0.2100E+01  0.2223E+01  0.2737E+02  0.2739E+02
      4.084  0.2247E+01  0.1962E+01  0.2774E+02  0.2771E+02
      4.248  0.1384E+01  0.1472E+01  0.2797E+02  0.2795E+02
      4.412  0.1891E+00  0.2576E+00  0.2800E+02  0.2800E+02
      4.576  0.5790E-02  0.8417E-02  0.2800E+02  0.2800E+02
      4.740  0.0000E+00  0.0000E+00  0.2800E+02  0.2800E+02
      4.904  0.0000E+00  0.0000E+00  0.2800E+02  0.2800E+02
      5.068  0.0000E+00  0.0000E+00  0.2800E+02  0.2800E+02
      5.232  0.0000E+00  0.0000E+00  0.2800E+02  0.2800E+02
      5.396  0.0000E+00  0.0000E+00  0.2800E+02  0.2800E+02
      5.560  0.0000E+00  0.0000E+00  0.2800E+02  0.2800E+02
      5.724  0.0000E+00  0.0000E+00  0.2800E+02  0.2800E+02
      5.888  0.0000E+00  0.0000E+00  0.2800E+02  0.2800E+02
      6.052  0.0000E+00  0.0000E+00  0.2800E+02  0.2800E+02
      6.216  0.0000E+00  0.0000E+00  0.2800E+02  0.2800E+02
      6.380  0.0000E+00  0.0000E+00  0.2800E+02  0.2800E+02
      6.544  0.0000E+00  0.0000E+00  0.2800E+02  0.2800E+02
      6.54417030    -42.66793779  301      1.72685785      1.00000000
    -42.668  0.0000E+00  0.0000E+00  0.0000E+00  0.0000E+00  0.0000E+00  0.0000E+00  0.0000E+00  0.0000E+00  0.0000E+00  0.0000E+00  0.0000E+00  0.0000E+00  0.0000E+00  0.0000E+00  0.0000E+00  0.0000E+00  0.0000E+00  0.0000E+00
    -42.504  0.0000E+00  0.0000E+00  0.0000E+00  0.0000E+00  0.0000E+00  0.0000E+00  0.0000E+00  0.0000E+00  0.0000E+00  0.0000E+00  0.0000E+00  0.0000E+00  0.0000E+00  0.0000E+00  0.0000E+00  0.0000E+00  0.0000E+00  0.0000E+00
    -42.340  0.0000E+00  0.0000E+00  0.0000E+00  0.0000E+00  0.0000E+00  0.0000E+00  0.0000E+00  0.0000E+00  0.0000E+00  0.0000E+00  0.0000E+00  0.0000E+00  0.0000E+00  0.0000E+00  0.0000E+00  0.0000E+00  0.0000E+00  0.0000E+00
    -42.176  0.0000E+00  0.0000E+00  0.0000E+00  0.0000E+00  0.0000E+00  0.0000E+00  0.0000E+00  0.0000E+00  0.0000E+00  0.0000E+00  0.0000E+00  0.0000E+00  0.0000E+00  0.0000E+00  0.0000E+00  0.0000E+00  0.0000E+00  0.0000E+00
    -42.012  0.0000E+00  0.0000E+00  0.0000E+00  0.0000E+00  0.0000E+00  0.0000E+00  0.0000E+00  0.0000E+00  0.0000E+00  0.0000E+00  0.0000E+00  0.0000E+00  0.0000E+00  0.0000E+00  0.0000E+00  0.0000E+00  0.0000E+00  0.0000E+00
    -41.848  0.0000E+00  0.0000E+00  0.0000E+00  0.0000E+00  0.0000E+00  0.0000E+00  0.0000E+00  0.0000E+00  0.0000E+00  0.0000E+00  0.0000E+00  0.0000E+00  0.0000E+00  0.0000E+00  0.0000E+00  0.0000E+00  0.0000E+00  0.0000E+00
    -41.684  0.0000E+00  0.0000E+00  0.0000E+00  0.0000E+00  0.0000E+00  0.0000E+00  0.0000E+00  0.0000E+00  0.0000E+00  0.0000E+00  0.0000E+00  0.0000E+00  0.0000E+00  0.0000E+00  0.0000E+00  0.0000E+00  0.0000E+00  0.0000E+00
    -41.520  0.0000E+00  0.0000E+00  0.0000E+00  0.0000E+00  0.0000E+00  0.0000E+00  0.0000E+00  0.0000E+00  0.0000E+00  0.0000E+00  0.0000E+00  0.0000E+00  0.0000E+00  0.0000E+00  0.0000E+00  0.0000E+00  0.0000E+00  0.0000E+00
    -41.356  0.0000E+00  0.0000E+00  0.0000E+00  0.0000E+00  0.0000E+00  0.0000E+00  0.0000E+00  0.0000E+00  0.0000E+00  0.0000E+00  0.0000E+00  0.0000E+00  0.0000E+00  0.0000E+00  0.0000E+00  0.0000E+00  0.0000E+00  0.0000E+00
    -41.192  0.0000E+00  0.0000E+00  0.0000E+00  0.0000E+00  0.0000E+00  0.0000E+00  0.0000E+00  0.0000E+00  0.0000E+00  0.0000E+00  0.0000E+00  0.0000E+00  0.0000E+00  0.0000E+00  0.0000E+00  0.0000E+00  0.0000E+00  0.0000E+00
    -41.028  0.0000E+00  0.0000E+00  0.0000E+00  0.0000E+00  0.0000E+00  0.0000E+00  0.0000E+00  0.0000E+00  0.0000E+00  0.0000E+00  0.0000E+00  0.0000E+00  0.0000E+00  0.0000E+00  0.0000E+00  0.0000E+00  0.0000E+00  0.0000E+00
    -40.863  0.8618E-03  0.8522E-03  0.3071E-10  0.3047E-10  0.3071E-10  0.3047E-10  0.3071E-10  0.3047E-10  0.1099E-10  0.1094E-10  0.1099E-10  0.1094E-10  0.5277E-11  0.5267E-11  0.1099E-10  0.1094E-10  0.5277E-11  0.5267E-11
    -40.699  0.2198E-01  0.2173E-01  0.7830E-09  0.7768E-09  0.7830E-09  0.7768E-09  0.7830E-09  0.7768E-09  0.2801E-09  0.2789E-09  0.2801E-09  0.2789E-09  0.1346E-09  0.1343E-09  0.2801E-09  0.2789E-09  0.1346E-09  0.1343E-09
    -40.535  0.5306E+00  0.5253E+00  0.1885E-07  0.1872E-07  0.1885E-07  0.1872E-07  0.1885E-07  0.1872E-07  0.6766E-08  0.6743E-08  0.6766E-08  0.6743E-08  0.3260E-08  0.3257E-08  0.6766E-08  0.6743E-08  0.3260E-08  0.3257E-08
    -40.371  0.3831E+01  0.3823E+01  0.1328E-06  0.1329E-06  0.1328E-06  0.1329E-06  0.1328E-06  0.1329E-06  0.4891E-07  0.4914E-07  0.4891E-07  0.4914E-07  0.2413E-07  0.2430E-07  0.4891E-07  0.4914E-07  0.2413E-07  0.2430E-07
    -40.207  0.1547E+01  0.1559E+01  0.5202E-07  0.5260E-07  0.5202E-07  0.5260E-07  0.5202E-07  0.5260E-07  0.1975E-07  0.2004E-07  0.1975E-07  0.2004E-07  0.1004E-07  0.1021E-07  0.1975E-07  0.2004E-07  0.1004E-07  0.1021E-07
    -40.043  0.7982E-01  0.8070E-01  0.2660E-08  0.2697E-08  0.2660E-08  0.2697E-08  0.2660E-08  0.2697E-08  0.1018E-08  0.1036E-08  0.1018E-08  0.1036E-08  0.5222E-09  0.5328E-09  0.1018E-08  0.1036E-08  0.5222E-09  0.5328E-09
    -39.879  0.0000E+00  0.0000E+00  0.0000E+00  0.0000E+00  0.0000E+00  0.0000E+00  0.0000E+00  0.0000E+00  0.0000E+00  0.0000E+00  0.0000E+00  0.0000E+00  0.0000E+00  0.0000E+00  0.0000E+00  0.0000E+00  0.0000E+00  0.0000E+00
    -39.715  0.0000E+00  0.0000E+00  0.0000E+00  0.0000E+00  0.0000E+00  0.0000E+00  0.0000E+00  0.0000E+00  0.0000E+00  0.0000E+00  0.0000E+00  0.0000E+00  0.0000E+00  0.0000E+00  0.0000E+00  0.0000E+00  0.0000E+00  0.0000E+00
    -39.551  0.0000E+00  0.0000E+00  0.0000E+00  0.0000E+00  0.0000E+00  0.0000E+00  0.0000E+00  0.0000E+00  0.0000E+00  0.0000E+00  0.0000E+00  0.0000E+00  0.0000E+00  0.0000E+00  0.0000E+00  0.0000E+00  0.0000E+00  0.0000E+00
    -39.387  0.0000E+00  0.0000E+00  0.0000E+00  0.0000E+00  0.0000E+00  0.0000E+00  0.0000E+00  0.0000E+00  0.0000E+00  0.0000E+00  0.0000E+00  0.0000E+00  0.0000E+00  0.0000E+00  0.0000E+00  0.0000E+00  0.0000E+00  0.0000E+00
    -39.223  0.0000E+00  0.0000E+00  0.0000E+00  0.0000E+00  0.0000E+00  0.0000E+00  0.0000E+00  0.0000E+00  0.0000E+00  0.0000E+00  0.0000E+00  0.0000E+00  0.0000E+00  0.0000E+00  0.0000E+00  0.0000E+00  0.0000E+00  0.0000E+00
    -39.059  0.0000E+00  0.0000E+00  0.0000E+00  0.0000E+00  0.0000E+00  0.0000E+00  0.0000E+00  0.0000E+00  0.0000E+00  0.0000E+00  0.0000E+00  0.0000E+00  0.0000E+00  0.0000E+00  0.0000E+00  0.0000E+00  0.0000E+00  0.0000E+00
    -38.895  0.0000E+00  0.0000E+00  0.0000E+00  0.0000E+00  0.0000E+00  0.0000E+00  0.0000E+00  0.0000E+00  0.0000E+00  0.0000E+00  0.0000E+00  0.0000E+00  0.0000E+00  0.0000E+00  0.0000E+00  0.0000E+00  0.0000E+00  0.0000E+00
    -38.731  0.0000E+00  0.0000E+00  0.0000E+00  0.0000E+00  0.0000E+00  0.0000E+00  0.0000E+00  0.0000E+00  0.0000E+00  0.0000E+00  0.0000E+00  0.0000E+00  0.0000E+00  0.0000E+00  0.0000E+00  0.0000E+00  0.0000E+00  0.0000E+00
    -38.567  0.0000E+00  0.0000E+00  0.0000E+00  0.0000E+00  0.0000E+00  0.0000E+00  0.0000E+00  0.0000E+00  0.0000E+00  0.0000E+00  0.0000E+00  0.0000E+00  0.0000E+00  0.0000E+00  0.0000E+00  0.0000E+00  0.0000E+00  0.0000E+00
    -38.403  0.0000E+00  0.0000E+00  0.0000E+00  0.0000E+00  0.0000E+00  0.0000E+00  0.0000E+00  0.0000E+00  0.0000E+00  0.0000E+00  0.0000E+00  0.0000E+00  0.0000E+00  0.0000E+00  0.0000E+00  0.0000E+00  0.0000E+00  0.0000E+00
    -38.239  0.0000E+00  0.0000E+00  0.0000E+00  0.0000E+00  0.0000E+00  0.0000E+00  0.0000E+00  0.0000E+00  0.0000E+00  0.0000E+00  0.0000E+00  0.0000E+00  0.0000E+00  0.0000E+00  0.0000E+00  0.0000E+00  0.0000E+00  0.0000E+00
    -38.075  0.0000E+00  0.0000E+00  0.0000E+00  0.0000E+00  0.0000E+00  0.0000E+00  0.0000E+00  0.0000E+00  0.0000E+00  0.0000E+00  0.0000E+00  0.0000E+00  0.0000E+00  0.0000E+00  0.0000E+00  0.0000E+00  0.0000E+00  0.0000E+00
    -37.911  0.0000E+00  0.0000E+00  0.0000E+00  0.0000E+00  0.0000E+00  0.0000E+00  0.0000E+00  0.0000E+00  0.0000E+00  0.0000E+00  0.0000E+00  0.0000E+00  0.0000E+00  0.0000E+00  0.0000E+00  0.0000E+00  0.0000E+00  0.0000E+00
    -37.747  0.0000E+00  0.0000E+00  0.0000E+00  0.0000E+00  0.0000E+00  0.0000E+00  0.0000E+00  0.0000E+00  0.0000E+00  0.0000E+00  0.0000E+00  0.0000E+00  0.0000E+00  0.0000E+00  0.0000E+00  0.0000E+00  0.0000E+00  0.0000E+00
    -37.583  0.0000E+00  0.0000E+00  0.0000E+00  0.0000E+00  0.0000E+00  0.0000E+00  0.0000E+00  0.0000E+00  0.0000E+00  0.0000E+00  0.0000E+00  0.0000E+00  0.0000E+00  0.0000E+00  0.0000E+00  0.0000E+00  0.0000E+00  0.0000E+00
    -37.419  0.0000E+00  0.0000E+00  0.0000E+00  0.0000E+00  0.0000E+00  0.0000E+00  0.0000E+00  0.0000E+00  0.0000E+00  0.0000E+00  0.0000E+00  0.0000E+00  0.0000E+00  0.0000E+00  0.0000E+00  0.0000E+00  0.0000E+00  0.0000E+00
    -37.255  0.0000E+00  0.0000E+00  0.0000E+00  0.0000E+00  0.0000E+00  0.0000E+00  0.0000E+00  0.0000E+00  0.0000E+00  0.0000E+00  0.0000E+00  0.0000E+00  0.0000E+00  0.0000E+00  0.0000E+00  0.0000E+00  0.0000E+00  0.0000E+00
    -37.091  0.0000E+00  0.0000E+00  0.0000E+00  0.0000E+00  0.0000E+00  0.0000E+00  0.0000E+00  0.0000E+00  0.0000E+00  0.0000E+00  0.0000E+00  0.0000E+00  0.0000E+00  0.0000E+00  0.0000E+00  0.0000E+00  0.0000E+00  0.0000E+00
    -36.927  0.0000E+00  0.0000E+00  0.0000E+00  0.0000E+00  0.0000E+00  0.0000E+00  0.0000E+00  0.0000E+00  0.0000E+00  0.0000E+00  0.0000E+00  0.0000E+00  0.0000E+00  0.0000E+00  0.0000E+00  0.0000E+00  0.0000E+00  0.0000E+00
    -36.762  0.0000E+00  0.0000E+00  0.0000E+00  0.0000E+00  0.0000E+00  0.0000E+00  0.0000E+00  0.0000E+00  0.0000E+00  0.0000E+00  0.0000E+00  0.0000E+00  0.0000E+00  0.0000E+00  0.0000E+00  0.0000E+00  0.0000E+00  0.0000E+00
    -36.598  0.0000E+00  0.0000E+00  0.0000E+00  0.0000E+00  0.0000E+00  0.0000E+00  0.0000E+00  0.0000E+00  0.0000E+00  0.0000E+00  0.0000E+00  0.0000E+00  0.0000E+00  0.0000E+00  0.0000E+00  0.0000E+00  0.0000E+00  0.0000E+00
    -36.434  0.0000E+00  0.0000E+00  0.0000E+00  0.0000E+00  0.0000E+00  0.0000E+00  0.0000E+00  0.0000E+00  0.0000E+00  0.0000E+00  0.0000E+00  0.0000E+00  0.0000E+00  0.0000E+00  0.0000E+00  0.0000E+00  0.0000E+00  0.0000E+00
    -36.270  0.0000E+00  0.0000E+00  0.0000E+00  0.0000E+00  0.0000E+00  0.0000E+00  0.0000E+00  0.0000E+00  0.0000E+00  0.0000E+00  0.0000E+00  0.0000E+00  0.0000E+00  0.0000E+00  0.0000E+00  0.0000E+00  0.0000E+00  0.0000E+00
    -36.106  0.0000E+00  0.0000E+00  0.0000E+00  0.0000E+00  0.0000E+00  0.0000E+00  0.0000E+00  0.0000E+00  0.0000E+00  0.0000E+00  0.0000E+00  0.0000E+00  0.0000E+00  0.0000E+00  0.0000E+00  0.0000E+00  0.0000E+00  0.0000E+00
    -35.942  0.0000E+00  0.0000E+00  0.0000E+00  0.0000E+00  0.0000E+00  0.0000E+00  0.0000E+00  0.0000E+00  0.0000E+00  0.0000E+00  0.0000E+00  0.0000E+00  0.0000E+00  0.0000E+00  0.0000E+00  0.0000E+00  0.0000E+00  0.0000E+00
    -35.778  0.0000E+00  0.0000E+00  0.0000E+00  0.0000E+00  0.0000E+00  0.0000E+00  0.0000E+00  0.0000E+00  0.0000E+00  0.0000E+00  0.0000E+00  0.0000E+00  0.0000E+00  0.0000E+00  0.0000E+00  0.0000E+00  0.0000E+00  0.0000E+00
    -35.614  0.0000E+00  0.0000E+00  0.0000E+00  0.0000E+00  0.0000E+00  0.0000E+00  0.0000E+00  0.0000E+00  0.0000E+00  0.0000E+00  0.0000E+00  0.0000E+00  0.0000E+00  0.0000E+00  0.0000E+00  0.0000E+00  0.0000E+00  0.0000E+00
    -35.450  0.0000E+00  0.0000E+00  0.0000E+00  0.0000E+00  0.0000E+00  0.0000E+00  0.0000E+00  0.0000E+00  0.0000E+00  0.0000E+00  0.0000E+00  0.0000E+00  0.0000E+00  0.0000E+00  0.0000E+00  0.0000E+00  0.0000E+00  0.0000E+00
    -35.286  0.0000E+00  0.0000E+00  0.0000E+00  0.0000E+00  0.0000E+00  0.0000E+00  0.0000E+00  0.0000E+00  0.0000E+00  0.0000E+00  0.0000E+00  0.0000E+00  0.0000E+00  0.0000E+00  0.0000E+00  0.0000E+00  0.0000E+00  0.0000E+00
    -35.122  0.0000E+00  0.0000E+00  0.0000E+00  0.0000E+00  0.0000E+00  0.0000E+00  0.0000E+00  0.0000E+00  0.0000E+00  0.0000E+00  0.0000E+00  0.0000E+00  0.0000E+00  0.0000E+00  0.0000E+00  0.0000E+00  0.0000E+00  0.0000E+00
    -34.958  0.0000E+00  0.0000E+00  0.0000E+00  0.0000E+00  0.0000E+00  0.0000E+00  0.0000E+00  0.0000E+00  0.0000E+00  0.0000E+00  0.0000E+00  0.0000E+00  0.0000E+00  0.0000E+00  0.0000E+00  0.0000E+00  0.0000E+00  0.0000E+00
    -34.794  0.0000E+00  0.0000E+00  0.0000E+00  0.0000E+00  0.0000E+00  0.0000E+00  0.0000E+00  0.0000E+00  0.0000E+00  0.0000E+00  0.0000E+00  0.0000E+00  0.0000E+00  0.0000E+00  0.0000E+00  0.0000E+00  0.0000E+00  0.0000E+00
    -34.630  0.0000E+00  0.0000E+00  0.0000E+00  0.0000E+00  0.0000E+00  0.0000E+00  0.0000E+00  0.0000E+00  0.0000E+00  0.0000E+00  0.0000E+00  0.0000E+00  0.0000E+00  0.0000E+00  0.0000E+00  0.0000E+00  0.0000E+00  0.0000E+00
    -34.466  0.0000E+00  0.0000E+00  0.0000E+00  0.0000E+00  0.0000E+00  0.0000E+00  0.0000E+00  0.0000E+00  0.0000E+00  0.0000E+00  0.0000E+00  0.0000E+00  0.0000E+00  0.0000E+00  0.0000E+00  0.0000E+00  0.0000E+00  0.0000E+00