   4   4   1   0
  0.3288268E+02  0.5085603E-09  0.5085603E-09  0.5085603E-09  0.5000000E-15
  1.000000000000000E-004
  CAR 
 unknown system                          
      8.35626496    -40.63528622  301      3.08240995      1.00000000
    -40.635  0.0000E+00  0.0000E+00  0.0000E+00  0.0000E+00
    -40.472  0.0000E+00  0.0000E+00  0.0000E+00  0.0000E+00
    -40.309  0.0000E+00  0.0000E+00  0.0000E+00  0.0000E+00
    -40.145  0.0000E+00  0.0000E+00  0.0000E+00  0.0000E+00
    -39.982  0.0000E+00  0.0000E+00  0.0000E+00  0.0000E+00
    -39.819  0.0000E+00  0.0000E+00  0.0000E+00  0.0000E+00
    -39.655  0.0000E+00  0.0000E+00  0.0000E+00  0.0000E+00
    -39.492  0.0000E+00  0.0000E+00  0.0000E+00  0.0000E+00
    -39.329  0.0000E+00  0.0000E+00  0.0000E+00  0.0000E+00
    -39.166  0.0000E+00  0.0000E+00  0.0000E+00  0.0000E+00
    -39.002  0.0000E+00  0.0000E+00  0.0000E+00  0.0000E+00
    -38.839  0.1967E-02  0.1975E-02  0.3212E-03  0.3225E-03
    -38.676  0.4948E-01  0.4966E-01  0.8401E-02  0.8433E-02
    -38.512  0.1224E+01  0.1229E+01  0.2083E+00  0.2091E+00
    -38.349  0.1297E+02  0.1299E+02  0.2327E+01  0.2331E+01
    -38.186  0.9578E+01  0.9558E+01  0.3891E+01  0.3892E+01
    -38.022  0.6406E+00  0.6383E+00  0.3996E+01  0.3996E+01
    -37.859  0.0000E+00  0.0000E+00  0.4000E+01  0.4000E+01
    -37.696  0.0000E+00  0.0000E+00  0.4000E+01  0.4000E+01
    -37.532  0.0000E+00  0.0000E+00  0.4000E+01  0.4000E+01
    -37.369  0.0000E+00  0.0000E+00  0.4000E+01  0.4000E+01
    -37.206  0.0000E+00  0.0000E+00  0.4000E+01  0.4000E+01
    -37.043  0.0000E+00  0.0000E+00  0.4000E+01  0.4000E+01
    -36.879  0.0000E+00  0.0000E+00  0.4000E+01  0.4000E+01
    -36.716  0.0000E+00  0.0000E+00  0.4000E+01  0.4000E+01
    -36.553  0.0000E+00  0.0000E+00  0.4000E+01  0.4000E+01
    -36.389  0.0000E+00  0.0000E+00  0.4000E+01  0.4000E+01
    -36.226  0.0000E+00  0.0000E+00  0.4000E+01  0.4000E+01
    -36.063  0.0000E+00  0.0000E+00  0.4000E+01  0.4000E+01
    -35.899  0.0000E+00  0.0000E+00  0.4000E+01  0.4000E+01
    -35.736  0.0000E+00  0.0000E+00  0.4000E+01  0.4000E+01
    -35.573  0.0000E+00  0.0000E+00  0.4000E+01  0.4000E+01
    -35.410  0.0000E+00  0.0000E+00  0.4000E+01  0.4000E+01
    -35.246  0.0000E+00  0.0000E+00  0.4000E+01  0.4000E+01
    -35.083  0.0000E+00  0.0000E+00  0.4000E+01  0.4000E+01
    -34.920  0.0000E+00  0.0000E+00  0.4000E+01  0.4000E+01
    -34.756  0.0000E+00  0.0000E+00  0.4000E+01  0.4000E+01
    -34.593  0.0000E+00  0.0000E+00  0.4000E+01  0.4000E+01
    -34.430  0.0000E+00  0.0000E+00  0.4000E+01  0.4000E+01
    -34.266  0.0000E+00  0.0000E+00  0.4000E+01  0.4000E+01
    -34.103  0.0000E+00  0.0000E+00  0.4000E+01  0.4000E+01
    -33.940  0.0000E+00  0.0000E+00  0.4000E+01  0.4000E+01
    -33.776  0.0000E+00  0.0000E+00  0.4000E+01  0.4000E+01
    -33.613  0.0000E+00  0.0000E+00  0.4000E+01  0.4000E+01
    -33.450  0.0000E+00  0.0000E+00  0.4000E+01  0.4000E+01
    -33.287  0.0000E+00  0.0000E+00  0.4000E+01  0.4000E+01
    -33.123  0.0000E+00  0.0000E+00  0.4000E+01  0.4000E+01
    -32.960  0.0000E+00  0.0000E+00  0.4000E+01  0.4000E+01
    -32.797  0.0000E+00  0.0000E+00  0.4000E+01  0.4000E+01
    -32.633  0.0000E+00  0.0000E+00  0.4000E+01  0.4000E+01
    -32.470  0.0000E+00  0.0000E+00  0.4000E+01  0.4000E+01
    -32.307  0.0000E+00  0.0000E+00  0.4000E+01  0.4000E+01
    -32.143  0.0000E+00  0.0000E+00  0.4000E+01  0.4000E+01
    -31.980  0.0000E+00  0.0000E+00  0.4000E+01  0.4000E+01
    -31.817  0.0000E+00  0.0000E+00  0.4000E+01  0.4000E+01
    -31.654  0.0000E+00  0.0000E+00  0.4000E+01  0.4000E+01
    -31.490  0.0000E+00  0.0000E+00  0.4000E+01  0.4000E+01
    -31.327  0.0000E+00  0.0000E+00  0.4000E+01  0.4000E+01
    -31.164  0.0000E+00  0.0000E+00  0.4000E+01  0.4000E+01
    -31.000  0.0000E+00  0.0000E+00  0.4000E+01  0.4000E+01
    -30.837  0.0000E+00  0.0000E+00  0.4000E+01  0.4000E+01
    -30.674  0.0000E+00  0.0000E+00  0.4000E+01  0.4000E+01
    -30.510  0.0000E+00  0.0000E+00  0.4000E+01  0.4000E+01
    -30.347  0.0000E+00  0.0000E+00  0.4000E+01  0.4000E+01
    -30.184  0.0000E+00  0.0000E+00  0.4000E+01  0.4000E+01
    -30.020  0.0000E+00  0.0000E+00  0.4000E+01  0.4000E+01
    -29.857  0.0000E+00  0.0000E+00  0.4000E+01  0.4000E+01
    -29.694  0.0000E+00  0.0000E+00  0.4000E+01  0.4000E+01
    -29.531  0.0000E+00  0.0000E+00  0.4000E+01  0.4000E+01
    -29.367  0.0000E+00  0.0000E+00  0.4000E+01  0.4000E+01
    -29.204  0.0000E+00  0.0000E+00  0.4000E+01  0.4000E+01
    -29.041  0.0000E+00  0.0000E+00  0.4000E+01  0.4000E+01
    -28.877  0.0000E+00  0.0000E+00  0.4000E+01  0.4000E+01
    -28.714  0.0000E+00  0.0000E+00  0.4000E+01  0.4000E+01
    -28.551  0.0000E+00  0.0000E+00  0.4000E+01  0.4000E+01
    -28.387  0.0000E+00  0.0000E+00  0.4000E+01  0.4000E+01
    -28.224  0.0000E+00  0.0000E+00  0.4000E+01  0.4000E+01
    -28.061  0.0000E+00  0.0000E+00  0.4000E+01  0.4000E+01
    -27.897  0.0000E+00  0.0000E+00  0.4000E+01  0.4000E+01
    -27.734  0.0000E+00  0.0000E+00  0.4000E+01  0.4000E+01
    -27.571  0.0000E+00  0.0000E+00  0.4000E+01  0.4000E+01
    -27.408  0.0000E+00  0.0000E+00  0.4000E+01  0.4000E+01
    -27.244  0.0000E+00  0.0000E+00  0.4000E+01  0.4000E+01
    -27.081  0.0000E+00  0.0000E+00  0.4000E+01  0.4000E+01
    -26.918  0.0000E+00  0.0000E+00  0.4000E+01  0.4000E+01
    -26.754  0.0000E+00  0.0000E+00  0.4000E+01  0.4000E+01
    -26.591  0.0000E+00  0.0000E+00  0.4000E+01  0.4000E+01
    -26.428  0.0000E+00  0.0000E+00  0.4000E+01  0.4000E+01
    -26.264  0.0000E+00  0.0000E+00  0.4000E+01  0.4000E+01
    -26.101  0.0000E+00  0.0000E+00  0.4000E+01  0.4000E+01
    -25.938  0.0000E+00  0.0000E+00  0.4000E+01  0.4000E+01
    -25.775  0.0000E+00  0.0000E+00  0.4000E+01  0.4000E+01
    -25.611  0.0000E+00  0.0000E+00  0.4000E+01  0.4000E+01
    -25.448  0.0000E+00  0.0000E+00  0.4000E+01  0.4000E+01
    -25.285  0.0000E+00  0.0000E+00  0.4000E+01  0.4000E+01
    -25.121  0.0000E+00  0.0000E+00  0.4000E+01  0.4000E+01
    -24.958  0.0000E+00  0.0000E+00  0.4000E+01  0.4000E+01
    -24.795  0.0000E+00  0.0000E+00  0.4000E+01  0.4000E+01
    -24.631  0.0000E+00  0.0000E+00  0.4000E+01  0.4000E+01
    -24.468  0.0000E+00  0.0000E+00  0.4000E+01  0.4000E+01
    -24.305  0.0000E+00  0.0000E+00  0.4000E+01  0.4000E+01
    -24.141  0.0000E+00  0.0000E+00  0.4000E+01  0.4000E+01
    -23.978  0.0000E+00  0.0000E+00  0.4000E+01  0.4000E+01
    -23.815  0.0000E+00  0.0000E+00  0.4000E+01  0.4000E+01
    -23.652  0.0000E+00  0.0000E+00  0.4000E+01  0.4000E+01
    -23.488  0.0000E+00  0.0000E+00  0.4000E+01  0.4000E+01
    -23.325  0.0000E+00  0.0000E+00  0.4000E+01  0.4000E+01
    -23.162  0.0000E+00  0.0000E+00  0.4000E+01  0.4000E+01
    -22.998  0.0000E+00  0.0000E+00  0.4000E+01  0.4000E+01
    -22.835  0.0000E+00  0.0000E+00  0.4000E+01  0.4000E+01
    -22.672  0.0000E+00  0.0000E+00  0.4000E+01  0.4000E+01
    -22.508  0.0000E+00  0.0000E+00  0.4000E+01  0.4000E+01
    -22.345  0.0000E+00  0.0000E+00  0.4000E+01  0.4000E+01
    -22.182  0.0000E+00  0.0000E+00  0.4000E+01  0.4000E+01
    -22.018  0.0000E+00  0.0000E+00  0.4000E+01  0.4000E+01
    -21.855  0.0000E+00  0.0000E+00  0.4000E+01  0.4000E+01
    -21.692  0.0000E+00  0.0000E+00  0.4000E+01  0.4000E+01
    -21.529  0.0000E+00  0.0000E+00  0.4000E+01  0.4000E+01
    -21.365  0.0000E+00  0.0000E+00  0.4000E+01  0.4000E+01
    -21.202  0.0000E+00  0.0000E+00  0.4000E+01  0.4000E+01
    -21.039  0.0000E+00  0.0000E+00  0.4000E+01  0.4000E+01
    -20.875  0.0000E+00  0.0000E+00  0.4000E+01  0.4000E+01
    -20.712  0.0000E+00  0.0000E+00  0.4000E+01  0.4000E+01
    -20.549  0.0000E+00  0.0000E+00  0.4000E+01  0.4000E+01
    -20.385  0.0000E+00  0.0000E+00  0.4000E+01  0.4000E+01
    -20.222  0.0000E+00  0.0000E+00  0.4000E+01  0.4000E+01
    -20.059  0.5454E-03  0.5485E-03  0.4000E+01  0.4000E+01
    -19.896  0.1610E-01  0.1617E-01  0.4003E+01  0.4003E+01
    -19.732  0.4145E+00  0.4162E+00  0.4070E+01  0.4071E+01
    -19.569  0.7185E+01  0.7206E+01  0.5244E+01  0.5247E+01
    -19.406  0.2687E+02  0.2689E+02  0.9632E+01  0.9639E+01
    -19.242  0.3225E+02  0.3223E+02  0.1490E+02  0.1490E+02
    -19.079  0.6361E+01  0.6339E+01  0.1595E+02  0.1595E+02
    -18.916  0.1625E+00  0.1604E+00  0.1600E+02  0.1600E+02
    -18.752  0.0000E+00  0.0000E+00  0.1600E+02  0.1600E+02
    -18.589  0.0000E+00  0.0000E+00  0.1600E+02  0.1600E+02
    -18.426  0.0000E+00  0.0000E+00  0.1600E+02  0.1600E+02
    -18.262  0.0000E+00  0.0000E+00  0.1600E+02  0.1600E+02
    -18.099  0.0000E+00  0.0000E+00  0.1600E+02  0.1600E+02
    -17.936  0.0000E+00  0.0000E+00  0.1600E+02  0.1600E+02
    -17.773  0.0000E+00  0.0000E+00  0.1600E+02  0.1600E+02
    -17.609  0.0000E+00  0.0000E+00  0.1600E+02  0.1600E+02
    -17.446  0.0000E+00  0.0000E+00  0.1600E+02  0.1600E+02
    -17.283  0.0000E+00  0.0000E+00  0.1600E+02  0.1600E+02
    -17.119  0.0000E+00  0.0000E+00  0.1600E+02  0.1600E+02
    -16.956  0.0000E+00  0.0000E+00  0.1600E+02  0.1600E+02
    -16.793  0.0000E+00  0.0000E+00  0.1600E+02  0.1600E+02
    -16.629  0.0000E+00  0.0000E+00  0.1600E+02  0.1600E+02
    -16.466  0.0000E+00  0.0000E+00  0.1600E+02  0.1600E+02
    -16.303  0.0000E+00  0.0000E+00  0.1600E+02  0.1600E+02
    -16.140  0.0000E+00  0.0000E+00  0.1600E+02  0.1600E+02
    -15.976  0.0000E+00  0.0000E+00  0.1600E+02  0.1600E+02
    -15.813  0.0000E+00  0.0000E+00  0.1600E+02  0.1600E+02
    -15.650  0.0000E+00  0.0000E+00  0.1600E+02  0.1600E+02
    -15.486  0.0000E+00  0.0000E+00  0.1600E+02  0.1600E+02
    -15.323  0.0000E+00  0.0000E+00  0.1600E+02  0.1600E+02
    -15.160  0.0000E+00  0.0000E+00  0.1600E+02  0.1600E+02
    -14.996  0.0000E+00  0.0000E+00  0.1600E+02  0.1600E+02
    -14.833  0.0000E+00  0.0000E+00  0.1600E+02  0.1600E+02
    -14.670  0.0000E+00  0.0000E+00  0.1600E+02  0.1600E+02
    -14.506  0.0000E+00  0.0000E+00  0.1600E+02  0.1600E+02
    -14.343  0.0000E+00  0.0000E+00  0.1600E+02  0.1600E+02
    -14.180  0.0000E+00  0.0000E+00  0.1600E+02  0.1600E+02
    -14.017  0.0000E+00  0.0000E+00  0.1600E+02  0.1600E+02
    -13.853  0.0000E+00  0.0000E+00  0.1600E+02  0.1600E+02
    -13.690  0.0000E+00  0.0000E+00  0.1600E+02  0.1600E+02
    -13.527  0.0000E+00  0.0000E+00  0.1600E+02  0.1600E+02
    -13.363  0.0000E+00  0.0000E+00  0.1600E+02  0.1600E+02
    -13.200  0.0000E+00  0.0000E+00  0.1600E+02  0.1600E+02
    -13.037  0.0000E+00  0.0000E+00  0.1600E+02  0.1600E+02
    -12.873  0.0000E+00  0.0000E+00  0.1600E+02  0.1600E+02
    -12.710  0.0000E+00  0.0000E+00  0.1600E+02  0.1600E+02
    -12.547  0.0000E+00  0.0000E+00  0.1600E+02  0.1600E+02
    -12.383  0.0000E+00  0.0000E+00  0.1600E+02  0.1600E+02
    -12.220  0.0000E+00  0.0000E+00  0.1600E+02  0.1600E+02
    -12.057  0.0000E+00  0.0000E+00  0.1600E+02  0.1600E+02
    -11.894  0.0000E+00  0.0000E+00  0.1600E+02  0.1600E+02
    -11.730  0.0000E+00  0.0000E+00  0.1600E+02  0.1600E+02
    -11.567  0.0000E+00  0.0000E+00  0.1600E+02  0.1600E+02
    -11.404  0.0000E+00  0.0000E+00  0.1600E+02  0.1600E+02
    -11.240  0.0000E+00  0.0000E+00  0.1600E+02  0.1600E+02
    -11.077  0.0000E+00  0.0000E+00  0.1600E+02  0.1600E+02
    -10.914  0.0000E+00  0.0000E+00  0.1600E+02  0.1600E+02
    -10.750  0.0000E+00  0.0000E+00  0.1600E+02  0.1600E+02
    -10.587  0.0000E+00  0.0000E+00  0.1600E+02  0.1600E+02
    -10.424  0.0000E+00  0.0000E+00  0.1600E+02  0.1600E+02
    -10.261  0.0000E+00  0.0000E+00  0.1600E+02  0.1600E+02
    -10.097  0.0000E+00  0.0000E+00  0.1600E+02  0.1600E+02
     -9.934  0.0000E+00  0.0000E+00  0.1600E+02  0.1600E+02
     -9.771  0.0000E+00  0.0000E+00  0.1600E+02  0.1600E+02
     -9.607  0.0000E+00  0.0000E+00  0.1600E+02  0.1600E+02
     -9.444  0.0000E+00  0.0000E+00  0.1600E+02  0.1600E+02
     -9.281  0.0000E+00  0.0000E+00  0.1600E+02  0.1600E+02
     -9.117  0.0000E+00  0.0000E+00  0.1600E+02  0.1600E+02
     -8.954  0.0000E+00  0.0000E+00  0.1600E+02  0.1600E+02
     -8.791  0.0000E+00  0.0000E+00  0.1600E+02  0.1600E+02
     -8.627  0.0000E+00  0.0000E+00  0.1600E+02  0.1600E+02
     -8.464  0.0000E+00  0.0000E+00  0.1600E+02  0.1600E+02
     -8.301  0.0000E+00  0.0000E+00  0.1600E+02  0.1600E+02
     -8.138  0.0000E+00  0.0000E+00  0.1600E+02  0.1600E+02
     -7.974  0.0000E+00  0.0000E+00  0.1600E+02  0.1600E+02
     -7.811  0.0000E+00  0.0000E+00  0.1600E+02  0.1600E+02
     -7.648  0.0000E+00  0.0000E+00  0.1600E+02  0.1600E+02
     -7.484  0.0000E+00  0.0000E+00  0.1600E+02  0.1600E+02
     -7.321  0.0000E+00  0.0000E+00  0.1600E+02  0.1600E+02
     -7.158  0.0000E+00  0.0000E+00  0.1600E+02  0.1600E+02
     -6.994  0.0000E+00  0.0000E+00  0.1600E+02  0.1600E+02
     -6.831  0.0000E+00  0.0000E+00  0.1600E+02  0.1600E+02
     -6.668  0.0000E+00  0.0000E+00  0.1600E+02  0.1600E+02
     -6.505  0.0000E+00  0.0000E+00  0.1600E+02  0.1600E+02
     -6.341  0.0000E+00  0.0000E+00  0.1600E+02  0.1600E+02
     -6.178  0.0000E+00  0.0000E+00  0.1600E+02  0.1600E+02
     -6.015  0.0000E+00  0.0000E+00  0.1600E+02  0.1600E+02
     -5.851  0.0000E+00  0.0000E+00  0.1600E+02  0.1600E+02
     -5.688  0.0000E+00  0.0000E+00  0.1600E+02  0.1600E+02
     -5.525  0.0000E+00  0.0000E+00  0.1600E+02  0.1600E+02
     -5.361  0.0000E+00  0.0000E+00  0.1600E+02  0.1600E+02
     -5.198  0.0000E+00  0.0000E+00  0.1600E+02  0.1600E+02
     -5.035  0.0000E+00  0.0000E+00  0.1600E+02  0.1600E+02
     -4.871  0.0000E+00  0.0000E+00  0.1600E+02  0.1600E+02
     -4.708  0.0000E+00  0.0000E+00  0.1600E+02  0.1600E+02
     -4.545  0.0000E+00  0.0000E+00  0.1600E+02  0.1600E+02
     -4.382  0.0000E+00  0.0000E+00  0.1600E+02  0.1600E+02
     -4.218  0.0000E+00  0.0000E+00  0.1600E+02  0.1600E+02
     -4.055  0.0000E+00  0.0000E+00  0.1600E+02  0.1600E+02
     -3.892  0.0000E+00  0.0000E+00  0.1600E+02  0.1600E+02
     -3.728  0.0000E+00  0.0000E+00  0.1600E+02  0.1600E+02
     -3.565  0.0000E+00  0.0000E+00  0.1600E+02  0.1600E+02
     -3.402  0.0000E+00  0.0000E+00  0.1600E+02  0.1600E+02
     -3.238  0.0000E+00  0.0000E+00  0.1600E+02  0.1600E+02
     -3.075  0.0000E+00  0.0000E+00  0.1600E+02  0.1600E+02
     -2.912  0.0000E+00  0.0000E+00  0.1600E+02  0.1600E+02
     -2.748  0.0000E+00  0.0000E+00  0.1600E+02  0.1600E+02
     -2.585  0.0000E+00  0.0000E+00  0.1600E+02  0.1600E+02
     -2.422  0.0000E+00  0.0000E+00  0.1600E+02  0.1600E+02
     -2.259  0.0000E+00  0.0000E+00  0.1600E+02  0.1600E+02
     -2.095  0.0000E+00  0.0000E+00  0.1600E+02  0.1600E+02
     -1.932  0.5205E-07  0.5242E-07  0.1600E+02  0.1600E+02
     -1.769  0.9000E-05  0.9064E-05  0.1600E+02  0.1600E+02
     -1.605  0.2462E-03  0.2480E-03  0.1600E+02  0.1600E+02
     -1.442  0.5809E-02  0.5847E-02  0.1600E+02  0.1600E+02
     -1.279  0.5606E-01  0.5624E-01  0.1601E+02  0.1601E+02
     -1.115  0.1418E+00  0.1420E+00  0.1603E+02  0.1603E+02
     -0.952  0.2031E+00  0.2033E+00  0.1607E+02  0.1607E+02
     -0.789  0.2498E+00  0.2498E+00  0.1611E+02  0.1611E+02
     -0.626  0.3011E+00  0.3013E+00  0.1616E+02  0.1616E+02
     -0.462  0.3316E+00  0.3315E+00  0.1621E+02  0.1621E+02
     -0.299  0.3885E+00  0.3888E+00  0.1627E+02  0.1627E+02
     -0.136  0.4176E+00  0.4175E+00  0.1634E+02  0.1634E+02
      0.028  0.4588E+00  0.4590E+00  0.1642E+02  0.1642E+02
      0.191  0.5114E+00  0.5116E+00  0.1650E+02  0.1650E+02
      0.354  0.5541E+00  0.5540E+00  0.1659E+02  0.1659E+02
      0.518  0.5655E+00  0.5658E+00  0.1668E+02  0.1668E+02
      0.681  0.6980E+00  0.6980E+00  0.1680E+02  0.1680E+02
      0.844  0.6438E+00  0.6439E+00  0.1690E+02  0.1690E+02
      1.008  0.7823E+00  0.7826E+00  0.1703E+02  0.1703E+02
      1.171  0.8038E+00  0.8036E+00  0.1716E+02  0.1716E+02
      1.334  0.8966E+00  0.8969E+00  0.1731E+02  0.1731E+02
      1.497  0.9672E+00  0.9673E+00  0.1747E+02  0.1747E+02
      1.661  0.1066E+01  0.1067E+01  0.1764E+02  0.1764E+02
      1.824  0.1198E+01  0.1199E+01  0.1784E+02  0.1784E+02
      1.987  0.1380E+01  0.1381E+01  0.1807E+02  0.1807E+02
      2.151  0.1597E+01  0.1597E+01  0.1833E+02  0.1833E+02
      2.314  0.1663E+01  0.1663E+01  0.1860E+02  0.1860E+02
      2.477  0.1844E+01  0.1843E+01  0.1890E+02  0.1890E+02
      2.641  0.1735E+01  0.1736E+01  0.1918E+02  0.1918E+02
      2.804  0.1716E+01  0.1715E+01  0.1947E+02  0.1947E+02
      2.967  0.1821E+01  0.1819E+01  0.1976E+02  0.1976E+02
      3.130  0.2032E+01  0.2034E+01  0.2010E+02  0.2010E+02
      3.294  0.2022E+01  0.2026E+01  0.2043E+02  0.2043E+02
      3.457  0.2804E+01  0.2812E+01  0.2089E+02  0.2089E+02
      3.620  0.4315E+01  0.4319E+01  0.2159E+02  0.2159E+02
      3.784  0.3910E+01  0.3906E+01  0.2223E+02  0.2223E+02
      3.947  0.3109E+01  0.3109E+01  0.2274E+02  0.2274E+02
      4.110  0.3323E+01  0.3325E+01  0.2329E+02  0.2329E+02
      4.274  0.3842E+01  0.3843E+01  0.2391E+02  0.2392E+02
      4.437  0.4003E+01  0.4001E+01  0.2457E+02  0.2457E+02
      4.600  0.3824E+01  0.3820E+01  0.2520E+02  0.2520E+02
      4.764  0.3056E+01  0.3053E+01  0.2570E+02  0.2570E+02
      4.927  0.2460E+01  0.2459E+01  0.2610E+02  0.2610E+02
      5.090  0.2243E+01  0.2236E+01  0.2647E+02  0.2647E+02
      5.253  0.1999E+01  0.2000E+01  0.2679E+02  0.2679E+02
      5.417  0.1813E+01  0.1847E+01  0.2709E+02  0.2710E+02
      5.580  0.1560E+01  0.1660E+01  0.2735E+02  0.2737E+02
      5.743  0.1528E+01  0.1442E+01  0.2760E+02  0.2760E+02
      5.907  0.1633E+01  0.1622E+01  0.2786E+02  0.2787E+02
      6.070  0.7315E+00  0.7017E+00  0.2798E+02  0.2799E+02
      6.233  0.8557E-01  0.7807E-01  0.2800E+02  0.2800E+02
      6.397  0.2798E-02  0.2029E-02  0.2800E+02  0.2800E+02
      6.560  0.0000E+00  0.0000E+00  0.2800E+02  0.2800E+02
      6.723  0.0000E+00  0.0000E+00  0.2800E+02  0.2800E+02
      6.887  0.0000E+00  0.0000E+00  0.2800E+02  0.2800E+02
      7.050  0.0000E+00  0.0000E+00  0.2800E+02  0.2800E+02
      7.213  0.0000E+00  0.0000E+00  0.2800E+02  0.2800E+02
      7.376  0.0000E+00  0.0000E+00  0.2800E+02  0.2800E+02
      7.540  0.0000E+00  0.0000E+00  0.2800E+02  0.2800E+02
      7.703  0.0000E+00  0.0000E+00  0.2800E+02  0.2800E+02
      7.866  0.0000E+00  0.0000E+00  0.2800E+02  0.2800E+02
      8.030  0.0000E+00  0.0000E+00  0.2800E+02  0.2800E+02
      8.193  0.0000E+00  0.0000E+00  0.2800E+02  0.2800E+02
      8.356  0.0000E+00  0.0000E+00  0.2800E+02  0.2800E+02
      8.35626496    -40.63528622  301      3.08240995      1.00000000
    -40.635  0.0000E+00  0.0000E+00  0.0000E+00  0.0000E+00  0.0000E+00  0.0000E+00  0.0000E+00  0.0000E+00  0.0000E+00  0.0000E+00  0.0000E+00  0.0000E+00  0.0000E+00  0.0000E+00  0.0000E+00  0.0000E+00  0.0000E+00  0.0000E+00
    -40.472  0.0000E+00  0.0000E+00  0.0000E+00  0.0000E+00  0.0000E+00  0.0000E+00  0.0000E+00  0.0000E+00  0.0000E+00  0.0000E+00  0.0000E+00  0.0000E+00  0.0000E+00  0.0000E+00  0.0000E+00  0.0000E+00  0.0000E+00  0.0000E+00
    -40.309  0.0000E+00  0.0000E+00  0.0000E+00  0.0000E+00  0.0000E+00  0.0000E+00  0.0000E+00  0.0000E+00  0.0000E+00  0.0000E+00  0.0000E+00  0.0000E+00  0.0000E+00  0.0000E+00  0.0000E+00  0.0000E+00  0.0000E+00  0.0000E+00
    -40.145  0.0000E+00  0.0000E+00  0.0000E+00  0.0000E+00  0.0000E+00  0.0000E+00  0.0000E+00  0.0000E+00  0.0000E+00  0.0000E+00  0.0000E+00  0.0000E+00  0.0000E+00  0.0000E+00  0.0000E+00  0.0000E+00  0.0000E+00  0.0000E+00
    -39.982  0.0000E+00  0.0000E+00  0.0000E+00  0.0000E+00  0.0000E+00  0.0000E+00  0.0000E+00  0.0000E+00  0.0000E+00  0.0000E+00  0.0000E+00  0.0000E+00  0.0000E+00  0.0000E+00  0.0000E+00  0.0000E+00  0.0000E+00  0.0000E+00
    -39.819  0.0000E+00  0.0000E+00  0.0000E+00  0.0000E+00  0.0000E+00  0.0000E+00  0.0000E+00  0.0000E+00  0.0000E+00  0.0000E+00  0.0000E+00  0.0000E+00  0.0000E+00  0.0000E+00  0.0000E+00  0.0000E+00  0.0000E+00  0.0000E+00
    -39.655  0.0000E+00  0.0000E+00  0.0000E+00  0.0000E+00  0.0000E+00  0.0000E+00  0.0000E+00  0.0000E+00  0.0000E+00  0.0000E+00  0.0000E+00  0.0000E+00  0.0000E+00  0.0000E+00  0.0000E+00  0.0000E+00  0.0000E+00  0.0000E+00
    -39.492  0.0000E+00  0.0000E+00  0.0000E+00  0.0000E+00  0.0000E+00  0.0000E+00  0.0000E+00  0.0000E+00  0.0000E+00  0.0000E+00  0.0000E+00  0.0000E+00  0.0000E+00  0.0000E+00  0.0000E+00  0.0000E+00  0.0000E+00  0.0000E+00
    -39.329  0.0000E+00  0.0000E+00  0.0000E+00  0.0000E+00  0.0000E+00  0.0000E+00  0.0000E+00  0.0000E+00  0.0000E+00  0.0000E+00  0.0000E+00  0.0000E+00  0.0000E+00  0.0000E+00  0.0000E+00  0.0000E+00  0.0000E+00  0.0000E+00
    -39.166  0.0000E+00  0.0000E+00  0.0000E+00  0.0000E+00  0.0000E+00  0.0000E+00  0.0000E+00  0.0000E+00  0.0000E+00  0.0000E+00  0.0000E+00  0.0000E+00  0.0000E+00  0.0000E+00  0.0000E+00  0.0000E+00  0.0000E+00  0.0000E+00
    -39.002  0.0000E+00  0.0000E+00  0.0000E+00  0.0000E+00  0.0000E+00  0.0000E+00  0.0000E+00  0.0000E+00  0.0000E+00  0.0000E+00  0.0000E+00  0.0000E+00  0.0000E+00  0.0000E+00  0.0000E+00  0.0000E+00  0.0000E+00  0.0000E+00
    -38.839  0.4849E-03  0.4867E-03  0.3392E-09  0.3406E-09  0.3392E-09  0.3406E-09  0.3392E-09  0.3406E-09  0.1081E-09  0.1086E-09  0.1081E-09  0.1086E-09  0.4677E-10  0.4691E-10  0.1081E-09  0.1086E-09  0.4677E-10  0.4691E-10
    -38.676  0.1220E-01  0.1224E-01  0.8529E-08  0.8564E-08  0.8529E-08  0.8564E-08  0.8529E-08  0.8564E-08  0.2720E-08  0.2731E-08  0.2720E-08  0.2731E-08  0.1177E-08  0.1180E-08  0.2720E-08  0.2731E-08  0.1177E-08  0.1180E-08
    -38.512  0.3018E+00  0.3029E+00  0.2095E-06  0.2104E-06  0.2095E-06  0.2104E-06  0.2095E-06  0.2104E-06  0.6753E-07  0.6780E-07  0.6753E-07  0.6780E-07  0.2941E-07  0.2950E-07  0.6753E-07  0.6780E-07  0.2941E-07  0.2950E-07
    -38.349  0.3198E+01  0.3203E+01  0.2048E-05  0.2052E-05  0.2048E-05  0.2052E-05  0.2048E-05  0.2052E-05  0.7300E-06  0.7312E-06  0.7300E-06  0.7312E-06  0.3433E-06  0.3437E-06  0.7300E-06  0.7312E-06  0.3433E-06  0.3437E-06
    -38.186  0.2362E+01  0.2357E+01  0.1328E-05  0.1326E-05  0.1328E-05  0.1326E-05  0.1328E-05  0.1326E-05  0.5370E-06  0.5360E-06  0.5370E-06  0.5360E-06  0.2865E-06  0.2859E-06  0.5370E-06  0.5360E-06  0.2865E-06  0.2859E-06
    -38.022  0.1580E+00  0.1574E+00  0.8382E-07  0.8357E-07  0.8382E-07  0.8357E-07  0.8382E-07  0.8357E-07  0.3547E-07  0.3535E-07  0.3547E-07  0.3535E-07  0.2009E-07  0.2001E-07  0.3547E-07  0.3535E-07  0.2009E-07  0.2001E-07
    -37.859  0.0000E+00  0.0000E+00  0.0000E+00  0.0000E+00  0.0000E+00  0.0000E+00  0.0000E+00  0.0000E+00  0.0000E+00  0.0000E+00  0.0000E+00  0.0000E+00  0.0000E+00  0.0000E+00  0.0000E+00  0.0000E+00  0.0000E+00  0.0000E+00
    -37.696  0.0000E+00  0.0000E+00  0.0000E+00  0.0000E+00  0.0000E+00  0.0000E+00  0.0000E+00  0.0000E+00  0.0000E+00  0.0000E+00  0.0000E+00  0.0000E+00  0.0000E+00  0.0000E+00  0.0000E+00  0.0000E+00  0.0000E+00  0.0000E+00
    -37.532  0.0000E+00  0.0000E+00  0.0000E+00  0.0000E+00  0.0000E+00  0.0000E+00  0.0000E+00  0.0000E+00  0.0000E+00  0.0000E+00  0.0000E+00  0.0000E+00  0.0000E+00  0.0000E+00  0.0000E+00  0.0000E+00  0.0000E+00  0.0000E+00
    -37.369  0.0000E+00  0.0000E+00  0.0000E+00  0.0000E+00  0.0000E+00  0.0000E+00  0.0000E+00  0.0000E+00  0.0000E+00  0.0000E+00  0.0000E+00  0.0000E+00  0.0000E+00  0.0000E+00  0.0000E+00  0.0000E+00  0.0000E+00  0.0000E+00
    -37.206  0.0000E+00  0.0000E+00  0.0000E+00  0.0000E+00  0.0000E+00  0.0000E+00  0.0000E+00  0.0000E+00  0.0000E+00  0.0000E+00  0.0000E+00  0.0000E+00  0.0000E+00  0.0000E+00  0.0000E+00  0.0000E+00  0.0000E+00  0.0000E+00
    -37.043  0.0000E+00  0.0000E+00  0.0000E+00  0.0000E+00  0.0000E+00  0.0000E+00  0.0000E+00  0.0000E+00  0.0000E+00  0.0000E+00  0.0000E+00  0.0000E+00  0.0000E+00  0.0000E+00  0.0000E+00  0.0000E+00  0.0000E+00  0.0000E+00
    -36.879  0.0000E+00  0.0000E+00  0.0000E+00  0.0000E+00  0.0000E+00  0.0000E+00  0.0000E+00  0.0000E+00  0.0000E+00  0.0000E+00  0.0000E+00  0.0000E+00  0.0000E+00  0.0000E+00  0.0000E+00  0.0000E+00  0.0000E+00  0.0000E+00
    -36.716  0.0000E+00  0.0000E+00  0.0000E+00  0.0000E+00  0.0000E+00  0.0000E+00  0.0000E+00  0.0000E+00  0.0000E+00  0.0000E+00  0.0000E+00  0.0000E+00  0.0000E+00  0.0000E+00  0.0000E+00  0.0000E+00  0.0000E+00  0.0000E+00
    -36.553  0.0000E+00  0.0000E+00  0.0000E+00  0.0000E+00  0.0000E+00  0.0000E+00  0.0000E+00  0.0000E+00  0.0000E+00  0.0000E+00  0.0000E+00  0.0000E+00  0.0000E+00  0.0000E+00  0.0000E+00  0.0000E+00  0.0000E+00  0.0000E+00
    -36.389  0.0000E+00  0.0000E+00  0.0000E+00  0.0000E+00  0.0000E+00  0.0000E+00  0.0000E+00  0.0000E+00  0.0000E+00  0.0000E+00  0.0000E+00  0.0000E+00  0.0000E+00  0.0000E+00  0.0000E+00  0.0000E+00  0.0000E+00  0.0000E+00
    -36.226  0.0000E+00  0.0000E+00  0.0000E+00  0.0000E+00  0.0000E+00  0.0000E+00  0.0000E+00  0.0000E+00  0.0000E+00  0.0000E+00  0.0000E+00  0.0000E+00  0.0000E+00  0.0000E+00  0.0000E+00  0.0000E+00  0.0000E+00  0.0000E+00
    -36.063  0.0000E+00  0.0000E+00  0.0000E+00  0.0000E+00  0.0000E+00  0.0000E+00  0.0000E+00  0.0000E+00  0.0000E+00  0.0000E+00  0.0000E+00  0.0000E+00  0.0000E+00  0.0000E+00  0.0000E+00  0.0000E+00  0.0000E+00  0.0000E+00
    -35.899  0.0000E+00  0.0000E+00  0.0000E+00  0.0000E+00  0.0000E+00  0.0000E+00  0.0000E+00  0.0000E+00  0.0000E+00  0.0000E+00  0.0000E+00  0.0000E+00  0.0000E+00  0.0000E+00  0.0000E+00  0.0000E+00  0.0000E+00  0.0000E+00
    -35.736  0.0000E+00  0.0000E+00  0.0000E+00  0.0000E+00  0.0000E+00  0.0000E+00  0.0000E+00  0.0000E+00  0.0000E+00  0.0000E+00  0.0000E+00  0.0000E+00  0.0000E+00  0.0000E+00  0.0000E+00  0.0000E+00  0.0000E+00  0.0000E+00
    -35.573  0.0000E+00  0.0000E+00  0.0000E+00  0.0000E+00  0.0000E+00  0.0000E+00  0.0000E+00  0.0000E+00  0.0000E+00  0.0000E+00  0.0000E+00  0.0000E+00  0.0000E+00  0.0000E+00  0.0000E+00  0.0000E+00  0.0000E+00  0.0000E+00
    -35.410  0.0000E+00  0.0000E+00  0.0000E+00  0.0000E+00  0.0000E+00  0.0000E+00  0.0000E+00  0.0000E+00  0.0000E+00  0.0000E+00  0.0000E+00  0.0000E+00  0.0000E+00  0.0000E+00  0.0000E+00  0.0000E+00  0.0000E+00  0.0000E+00
    -35.246  0.0000E+00  0.0000E+00  0.0000E+00  0.0000E+00  0.0000E+00  0.0000E+00  0.0000E+00  0.0000E+00  0.0000E+00  0.0000E+00  0.0000E+00  0.0000E+00  0.0000E+00  0.0000E+00  0.0000E+00  0.0000E+00  0.0000E+00  0.0000E+00
    -35.083  0.0000E+00  0.0000E+00  0.0000E+00  0.0000E+00  0.0000E+00  0.0000E+00  0.0000E+00  0.0000E+00  0.0000E+00  0.0000E+00  0.0000E+00  0.0000E+00  0.0000E+00  0.0000E+00  0.0000E+00  0.0000E+00  0.0000E+00  0.0000E+00
    -34.920  0.0000E+00  0.0000E+00  0.0000E+00  0.0000E+00  0.0000E+00  0.0000E+00  0.0000E+00  0.0000E+00  0.0000E+00  0.0000E+00  0.0000E+00  0.0000E+00  0.0000E+00  0.0000E+00  0.0000E+00  0.0000E+00  0.0000E+00  0.0000E+00
    -34.756  0.0000E+00  0.0000E+00  0.0000E+00  0.0000E+00  0.0000E+00  0.0000E+00  0.0000E+00  0.0000E+00  0.0000E+00  0.0000E+00  0.0000E+00  0.0000E+00  0.0000E+00  0.0000E+00  0.0000E+00  0.0000E+00  0.0000E+00  0.0000E+00
    -34.593  0.0000E+00  0.0000E+00  0.0000E+00  0.0000E+00  0.0000E+00  0.0000E+00  0.0000E+00  0.0000E+00  0.0000E+00  0.0000E+00  0.0000E+00  0.0000E+00  0.0000E+00  0.0000E+00  0.0000E+00  0.0000E+00  0.0000E+00  0.0000E+00
    -34.430  0.0000E+00  0.0000E+00  0.0000E+00  0.0000E+00  0.0000E+00  0.0000E+00  0.0000E+00  0.0000E+00  0.0000E+00  0.0000E+00  0.0000E+00  0.0000E+00  0.0000E+00  0.0000E+00  0.0000E+00  0.0000E+00  0.0000E+00  0.0000E+00
    -34.266  0.0000E+00  0.0000E+00  0.0000E+00  0.0000E+00  0.0000E+00  0.0000E+00  0.0000E+00  0.0000E+00  0.0000E+00  0.0000E+00  0.0000E+00  0.0000E+00  0.0000E+00  0.0000E+00  0.0000E+00  0.0000E+00  0.0000E+00  0.0000E+00
    -34.103  0.0000E+00  0.0000E+00  0.0000E+00  0.0000E+00  0.0000E+00  0.0000E+00  0.0000E+00  0.0000E+00  0.0000E+00  0.0000E+00  0.0000E+00  0.0000E+00  0.0000E+00  0.0000E+00  0.0000E+00  0.0000E+00  0.0000E+00  0.0000E+00
    -33.940  0.0000E+00  0.0000E+00  0.0000E+00  0.0000E+00  0.0000E+00  0.0000E+00  0.0000E+00  0.0000E+00  0.0000E+00  0.0000E+00  0.0000E+00  0.0000E+00  0.0000E+00  0.0000E+00  0.0000E+00  0.0000E+00  0.0000E+00  0.0000E+00
    -33.776  0.0000E+00  0.0000E+00  0.0000E+00  0.0000E+00  0.0000E+00  0.0000E+00  0.0000E+00  0.0000E+00  0.0000E+00  0.0000E+00  0.0000E+00  0.0000E+00  0.0000E+00  0.0000E+00  0.0000E+00  0.0000E+00  0.0000E+00  0.0000E+00
    -33.613  0.0000E+00  0.0000E+00  0.0000E+00  0.0000E+00  0.0000E+00  0.0000E+00  0.0000E+00  0.0000E+00  0.0000E+00  0.0000E+00  0.0000E+00  0.0000E+00  0.0000E+00  0.0000E+00  0.0000E+00  0.0000E+00  0.0000E+00  0.0000E+00
    -33.450  0.0000E+00  0.0000E+00  0.0000E+00  0.0000E+00  0.0000E+00  0.0000E+00  0.0000E+00  0.0000E+00  0.0000E+00  0.0000E+00  0.0000E+00  0.0000E+00  0.0000E+00  0.0000E+00  0.0000E+00  0.0000E+00  0.0000E+00  0.0000E+00
    -33.287  0.0000E+00  0.0000E+00  0.0000E+00  0.0000E+00  0.0000E+00  0.0000E+00  0.0000E+00  0.0000E+00  0.0000E+00  0.0000E+00  0.0000E+00  0.0000E+00  0.0000E+00  0.0000E+00  0.0000E+00  0.0000E+00  0.0000E+00  0.0000E+00
    -33.123  0.0000E+00  0.0000E+00  0.0000E+00  0.0000E+00  0.0000E+00  0.0000E+00  0.0000E+00  0.0000E+00  0.0000E+00  0.0000E+00  0.0000E+00  0.0000E+00  0.0000E+00  0.0000E+00  0.0000E+00  0.0000E+00  0.0000E+00  0.0000E+00
    -32.960  0.0000E+00  0.0000E+00  0.0000E+00  0.0000E+00  0.0000E+00  0.0000E+00  0.0000E+00  0.0000E+00  0.0000E+00  0.0000E+00  0.0000E+00  0.0000E+00  0.0000E+00  0.0000E+00  0.0000E+00  0.0000E+00  0.0000E+00  0.0000E+00
    -32.797  0.0000E+00  0.0000E+00  0.0000E+00  0.0000E+00  0.0000E+00  0.0000E+00  0.0000E+00  0.0000E+00  0.0000E+00  0.0000E+00  0.0000E+00  0.0000E+00  0.0000E+00  0.0000E+00  0.0000E+00  0.0000E+00  0.0000E+00  0.0000E+00
    -32.633  0.0000E+00  0.0000E+00  0.0000E+00  0.0000E+00  0.0000E+00  0.0000E+00  0.0000E+00  0.0000E+00  0.0000E+00  0.0000E+00  0.0000E+00  0.0000E+00  0.0000E+00  0.0000E+00  0.0000E+00  0.0000E+00  0.0000E+00  0.0000E+00
    -32.470  0.0000E+00  0.0000E+00  0.0000E+00  0.0000E+00  0.0000E+00  0.0000E+00  0.0000E+00  0.0000E+00  0.0000E+00  0.0000E+00  0.0000E+00  0.0000E+00  0.0000E+00  0.0000E+00  0.0000E+00  0.0000E+00  0.0000E+00  0.0000E+00