   4   4   1   0
  0.3854064E+02  0.5361994E-09  0.5361994E-09  0.5361994E-09  0.5000000E-15
  1.000000000000000E-004
  CAR 
 unknown system                          
      7.39846325    -41.70842529  301      2.33643872      1.00000000
    -41.708  0.0000E+00  0.0000E+00  0.0000E+00  0.0000E+00
    -41.545  0.0000E+00  0.0000E+00  0.0000E+00  0.0000E+00
    -41.381  0.0000E+00  0.0000E+00  0.0000E+00  0.0000E+00
    -41.217  0.0000E+00  0.0000E+00  0.0000E+00  0.0000E+00
    -41.054  0.0000E+00  0.0000E+00  0.0000E+00  0.0000E+00
    -40.890  0.0000E+00  0.0000E+00  0.0000E+00  0.0000E+00
    -40.726  0.0000E+00  0.0000E+00  0.0000E+00  0.0000E+00
    -40.563  0.0000E+00  0.0000E+00  0.0000E+00  0.0000E+00
    -40.399  0.0000E+00  0.0000E+00  0.0000E+00  0.0000E+00
    -40.235  0.0000E+00  0.0000E+00  0.0000E+00  0.0000E+00
    -40.072  0.0000E+00  0.0000E+00  0.0000E+00  0.0000E+00
    -39.908  0.2901E-02  0.2734E-02  0.4749E-03  0.4475E-03
    -39.744  0.7349E-01  0.6927E-01  0.1250E-01  0.1179E-01
    -39.580  0.1791E+01  0.1695E+01  0.3056E+00  0.2893E+00
    -39.417  0.1485E+02  0.1463E+02  0.2736E+01  0.2685E+01
    -39.253  0.7299E+01  0.7589E+01  0.3931E+01  0.3927E+01
    -39.089  0.4053E+00  0.4296E+00  0.3997E+01  0.3997E+01
    -38.926  0.0000E+00  0.0000E+00  0.4000E+01  0.4000E+01
    -38.762  0.0000E+00  0.0000E+00  0.4000E+01  0.4000E+01
    -38.598  0.0000E+00  0.0000E+00  0.4000E+01  0.4000E+01
    -38.435  0.0000E+00  0.0000E+00  0.4000E+01  0.4000E+01
    -38.271  0.0000E+00  0.0000E+00  0.4000E+01  0.4000E+01
    -38.107  0.0000E+00  0.0000E+00  0.4000E+01  0.4000E+01
    -37.944  0.0000E+00  0.0000E+00  0.4000E+01  0.4000E+01
    -37.780  0.0000E+00  0.0000E+00  0.4000E+01  0.4000E+01
    -37.616  0.0000E+00  0.0000E+00  0.4000E+01  0.4000E+01
    -37.452  0.0000E+00  0.0000E+00  0.4000E+01  0.4000E+01
    -37.289  0.0000E+00  0.0000E+00  0.4000E+01  0.4000E+01
    -37.125  0.0000E+00  0.0000E+00  0.4000E+01  0.4000E+01
    -36.961  0.0000E+00  0.0000E+00  0.4000E+01  0.4000E+01
    -36.798  0.0000E+00  0.0000E+00  0.4000E+01  0.4000E+01
    -36.634  0.0000E+00  0.0000E+00  0.4000E+01  0.4000E+01
    -36.470  0.0000E+00  0.0000E+00  0.4000E+01  0.4000E+01
    -36.307  0.0000E+00  0.0000E+00  0.4000E+01  0.4000E+01
    -36.143  0.0000E+00  0.0000E+00  0.4000E+01  0.4000E+01
    -35.979  0.0000E+00  0.0000E+00  0.4000E+01  0.4000E+01
    -35.816  0.0000E+00  0.0000E+00  0.4000E+01  0.4000E+01
    -35.652  0.0000E+00  0.0000E+00  0.4000E+01  0.4000E+01
    -35.488  0.0000E+00  0.0000E+00  0.4000E+01  0.4000E+01
    -35.325  0.0000E+00  0.0000E+00  0.4000E+01  0.4000E+01
    -35.161  0.0000E+00  0.0000E+00  0.4000E+01  0.4000E+01
    -34.997  0.0000E+00  0.0000E+00  0.4000E+01  0.4000E+01
    -34.833  0.0000E+00  0.0000E+00  0.4000E+01  0.4000E+01
    -34.670  0.0000E+00  0.0000E+00  0.4000E+01  0.4000E+01
    -34.506  0.0000E+00  0.0000E+00  0.4000E+01  0.4000E+01
    -34.342  0.0000E+00  0.0000E+00  0.4000E+01  0.4000E+01
    -34.179  0.0000E+00  0.0000E+00  0.4000E+01  0.4000E+01
    -34.015  0.0000E+00  0.0000E+00  0.4000E+01  0.4000E+01
    -33.851  0.0000E+00  0.0000E+00  0.4000E+01  0.4000E+01
    -33.688  0.0000E+00  0.0000E+00  0.4000E+01  0.4000E+01
    -33.524  0.0000E+00  0.0000E+00  0.4000E+01  0.4000E+01
    -33.360  0.0000E+00  0.0000E+00  0.4000E+01  0.4000E+01
    -33.197  0.0000E+00  0.0000E+00  0.4000E+01  0.4000E+01
    -33.033  0.0000E+00  0.0000E+00  0.4000E+01  0.4000E+01
    -32.869  0.0000E+00  0.0000E+00  0.4000E+01  0.4000E+01
    -32.705  0.0000E+00  0.0000E+00  0.4000E+01  0.4000E+01
    -32.542  0.0000E+00  0.0000E+00  0.4000E+01  0.4000E+01
    -32.378  0.0000E+00  0.0000E+00  0.4000E+01  0.4000E+01
    -32.214  0.0000E+00  0.0000E+00  0.4000E+01  0.4000E+01
    -32.051  0.0000E+00  0.0000E+00  0.4000E+01  0.4000E+01
    -31.887  0.0000E+00  0.0000E+00  0.4000E+01  0.4000E+01
    -31.723  0.0000E+00  0.0000E+00  0.4000E+01  0.4000E+01
    -31.560  0.0000E+00  0.0000E+00  0.4000E+01  0.4000E+01
    -31.396  0.0000E+00  0.0000E+00  0.4000E+01  0.4000E+01
    -31.232  0.0000E+00  0.0000E+00  0.4000E+01  0.4000E+01
    -31.069  0.0000E+00  0.0000E+00  0.4000E+01  0.4000E+01
    -30.905  0.0000E+00  0.0000E+00  0.4000E+01  0.4000E+01
    -30.741  0.0000E+00  0.0000E+00  0.4000E+01  0.4000E+01
    -30.578  0.0000E+00  0.0000E+00  0.4000E+01  0.4000E+01
    -30.414  0.0000E+00  0.0000E+00  0.4000E+01  0.4000E+01
    -30.250  0.0000E+00  0.0000E+00  0.4000E+01  0.4000E+01
    -30.086  0.0000E+00  0.0000E+00  0.4000E+01  0.4000E+01
    -29.923  0.0000E+00  0.0000E+00  0.4000E+01  0.4000E+01
    -29.759  0.0000E+00  0.0000E+00  0.4000E+01  0.4000E+01
    -29.595  0.0000E+00  0.0000E+00  0.4000E+01  0.4000E+01
    -29.432  0.0000E+00  0.0000E+00  0.4000E+01  0.4000E+01
    -29.268  0.0000E+00  0.0000E+00  0.4000E+01  0.4000E+01
    -29.104  0.0000E+00  0.0000E+00  0.4000E+01  0.4000E+01
    -28.941  0.0000E+00  0.0000E+00  0.4000E+01  0.4000E+01
    -28.777  0.0000E+00  0.0000E+00  0.4000E+01  0.4000E+01
    -28.613  0.0000E+00  0.0000E+00  0.4000E+01  0.4000E+01
    -28.450  0.0000E+00  0.0000E+00  0.4000E+01  0.4000E+01
    -28.286  0.0000E+00  0.0000E+00  0.4000E+01  0.4000E+01
    -28.122  0.0000E+00  0.0000E+00  0.4000E+01  0.4000E+01
    -27.958  0.0000E+00  0.0000E+00  0.4000E+01  0.4000E+01
    -27.795  0.0000E+00  0.0000E+00  0.4000E+01  0.4000E+01
    -27.631  0.0000E+00  0.0000E+00  0.4000E+01  0.4000E+01
    -27.467  0.0000E+00  0.0000E+00  0.4000E+01  0.4000E+01
    -27.304  0.0000E+00  0.0000E+00  0.4000E+01  0.4000E+01
    -27.140  0.0000E+00  0.0000E+00  0.4000E+01  0.4000E+01
    -26.976  0.0000E+00  0.0000E+00  0.4000E+01  0.4000E+01
    -26.813  0.0000E+00  0.0000E+00  0.4000E+01  0.4000E+01
    -26.649  0.0000E+00  0.0000E+00  0.4000E+01  0.4000E+01
    -26.485  0.0000E+00  0.0000E+00  0.4000E+01  0.4000E+01
    -26.322  0.0000E+00  0.0000E+00  0.4000E+01  0.4000E+01
    -26.158  0.0000E+00  0.0000E+00  0.4000E+01  0.4000E+01
    -25.994  0.0000E+00  0.0000E+00  0.4000E+01  0.4000E+01
    -25.831  0.0000E+00  0.0000E+00  0.4000E+01  0.4000E+01
    -25.667  0.0000E+00  0.0000E+00  0.4000E+01  0.4000E+01
    -25.503  0.0000E+00  0.0000E+00  0.4000E+01  0.4000E+01
    -25.339  0.0000E+00  0.0000E+00  0.4000E+01  0.4000E+01
    -25.176  0.0000E+00  0.0000E+00  0.4000E+01  0.4000E+01
    -25.012  0.0000E+00  0.0000E+00  0.4000E+01  0.4000E+01
    -24.848  0.0000E+00  0.0000E+00  0.4000E+01  0.4000E+01
    -24.685  0.0000E+00  0.0000E+00  0.4000E+01  0.4000E+01
    -24.521  0.0000E+00  0.0000E+00  0.4000E+01  0.4000E+01
    -24.357  0.0000E+00  0.0000E+00  0.4000E+01  0.4000E+01
    -24.194  0.0000E+00  0.0000E+00  0.4000E+01  0.4000E+01
    -24.030  0.0000E+00  0.0000E+00  0.4000E+01  0.4000E+01
    -23.866  0.0000E+00  0.0000E+00  0.4000E+01  0.4000E+01
    -23.703  0.0000E+00  0.0000E+00  0.4000E+01  0.4000E+01
    -23.539  0.0000E+00  0.0000E+00  0.4000E+01  0.4000E+01
    -23.375  0.0000E+00  0.0000E+00  0.4000E+01  0.4000E+01
    -23.211  0.0000E+00  0.0000E+00  0.4000E+01  0.4000E+01
    -23.048  0.0000E+00  0.0000E+00  0.4000E+01  0.4000E+01
    -22.884  0.0000E+00  0.0000E+00  0.4000E+01  0.4000E+01
    -22.720  0.0000E+00  0.0000E+00  0.4000E+01  0.4000E+01
    -22.557  0.0000E+00  0.0000E+00  0.4000E+01  0.4000E+01
    -22.393  0.0000E+00  0.0000E+00  0.4000E+01  0.4000E+01
    -22.229  0.0000E+00  0.0000E+00  0.4000E+01  0.4000E+01
    -22.066  0.0000E+00  0.0000E+00  0.4000E+01  0.4000E+01
    -21.902  0.0000E+00  0.0000E+00  0.4000E+01  0.4000E+01
    -21.738  0.0000E+00  0.0000E+00  0.4000E+01  0.4000E+01
    -21.575  0.0000E+00  0.0000E+00  0.4000E+01  0.4000E+01
    -21.411  0.0000E+00  0.0000E+00  0.4000E+01  0.4000E+01
    -21.247  0.0000E+00  0.0000E+00  0.4000E+01  0.4000E+01
    -21.084  0.2922E-03  0.2592E-03  0.4000E+01  0.4000E+01
    -20.920  0.1236E-01  0.1167E-01  0.4002E+01  0.4002E+01
    -20.756  0.3184E+00  0.3003E+00  0.4054E+01  0.4051E+01
    -20.592  0.6782E+01  0.6464E+01  0.5164E+01  0.5109E+01
    -20.429  0.3816E+02  0.3765E+02  0.1141E+02  0.1127E+02
    -20.265  0.2588E+02  0.2660E+02  0.1565E+02  0.1563E+02
    -20.101  0.1973E+01  0.2088E+01  0.1599E+02  0.1599E+02
    -19.938  0.0000E+00  0.0000E+00  0.1600E+02  0.1600E+02
    -19.774  0.0000E+00  0.0000E+00  0.1600E+02  0.1600E+02
    -19.610  0.0000E+00  0.0000E+00  0.1600E+02  0.1600E+02
    -19.447  0.0000E+00  0.0000E+00  0.1600E+02  0.1600E+02
    -19.283  0.0000E+00  0.0000E+00  0.1600E+02  0.1600E+02
    -19.119  0.0000E+00  0.0000E+00  0.1600E+02  0.1600E+02
    -18.956  0.0000E+00  0.0000E+00  0.1600E+02  0.1600E+02
    -18.792  0.0000E+00  0.0000E+00  0.1600E+02  0.1600E+02
    -18.628  0.0000E+00  0.0000E+00  0.1600E+02  0.1600E+02
    -18.464  0.0000E+00  0.0000E+00  0.1600E+02  0.1600E+02
    -18.301  0.0000E+00  0.0000E+00  0.1600E+02  0.1600E+02
    -18.137  0.0000E+00  0.0000E+00  0.1600E+02  0.1600E+02
    -17.973  0.0000E+00  0.0000E+00  0.1600E+02  0.1600E+02
    -17.810  0.0000E+00  0.0000E+00  0.1600E+02  0.1600E+02
    -17.646  0.0000E+00  0.0000E+00  0.1600E+02  0.1600E+02
    -17.482  0.0000E+00  0.0000E+00  0.1600E+02  0.1600E+02
    -17.319  0.0000E+00  0.0000E+00  0.1600E+02  0.1600E+02
    -17.155  0.0000E+00  0.0000E+00  0.1600E+02  0.1600E+02
    -16.991  0.0000E+00  0.0000E+00  0.1600E+02  0.1600E+02
    -16.828  0.0000E+00  0.0000E+00  0.1600E+02  0.1600E+02
    -16.664  0.0000E+00  0.0000E+00  0.1600E+02  0.1600E+02
    -16.500  0.0000E+00  0.0000E+00  0.1600E+02  0.1600E+02
    -16.337  0.0000E+00  0.0000E+00  0.1600E+02  0.1600E+02
    -16.173  0.0000E+00  0.0000E+00  0.1600E+02  0.1600E+02
    -16.009  0.0000E+00  0.0000E+00  0.1600E+02  0.1600E+02
    -15.845  0.0000E+00  0.0000E+00  0.1600E+02  0.1600E+02
    -15.682  0.0000E+00  0.0000E+00  0.1600E+02  0.1600E+02
    -15.518  0.0000E+00  0.0000E+00  0.1600E+02  0.1600E+02
    -15.354  0.0000E+00  0.0000E+00  0.1600E+02  0.1600E+02
    -15.191  0.0000E+00  0.0000E+00  0.1600E+02  0.1600E+02
    -15.027  0.0000E+00  0.0000E+00  0.1600E+02  0.1600E+02
    -14.863  0.0000E+00  0.0000E+00  0.1600E+02  0.1600E+02
    -14.700  0.0000E+00  0.0000E+00  0.1600E+02  0.1600E+02
    -14.536  0.0000E+00  0.0000E+00  0.1600E+02  0.1600E+02
    -14.372  0.0000E+00  0.0000E+00  0.1600E+02  0.1600E+02
    -14.209  0.0000E+00  0.0000E+00  0.1600E+02  0.1600E+02
    -14.045  0.0000E+00  0.0000E+00  0.1600E+02  0.1600E+02
    -13.881  0.0000E+00  0.0000E+00  0.1600E+02  0.1600E+02
    -13.717  0.0000E+00  0.0000E+00  0.1600E+02  0.1600E+02
    -13.554  0.0000E+00  0.0000E+00  0.1600E+02  0.1600E+02
    -13.390  0.0000E+00  0.0000E+00  0.1600E+02  0.1600E+02
    -13.226  0.0000E+00  0.0000E+00  0.1600E+02  0.1600E+02
    -13.063  0.0000E+00  0.0000E+00  0.1600E+02  0.1600E+02
    -12.899  0.0000E+00  0.0000E+00  0.1600E+02  0.1600E+02
    -12.735  0.0000E+00  0.0000E+00  0.1600E+02  0.1600E+02
    -12.572  0.0000E+00  0.0000E+00  0.1600E+02  0.1600E+02
    -12.408  0.0000E+00  0.0000E+00  0.1600E+02  0.1600E+02
    -12.244  0.0000E+00  0.0000E+00  0.1600E+02  0.1600E+02
    -12.081  0.0000E+00  0.0000E+00  0.1600E+02  0.1600E+02
    -11.917  0.0000E+00  0.0000E+00  0.1600E+02  0.1600E+02
    -11.753  0.0000E+00  0.0000E+00  0.1600E+02  0.1600E+02
    -11.590  0.0000E+00  0.0000E+00  0.1600E+02  0.1600E+02
    -11.426  0.0000E+00  0.0000E+00  0.1600E+02  0.1600E+02
    -11.262  0.0000E+00  0.0000E+00  0.1600E+02  0.1600E+02
    -11.098  0.0000E+00  0.0000E+00  0.1600E+02  0.1600E+02
    -10.935  0.0000E+00  0.0000E+00  0.1600E+02  0.1600E+02
    -10.771  0.0000E+00  0.0000E+00  0.1600E+02  0.1600E+02
    -10.607  0.0000E+00  0.0000E+00  0.1600E+02  0.1600E+02
    -10.444  0.0000E+00  0.0000E+00  0.1600E+02  0.1600E+02
    -10.280  0.0000E+00  0.0000E+00  0.1600E+02  0.1600E+02
    -10.116  0.0000E+00  0.0000E+00  0.1600E+02  0.1600E+02
     -9.953  0.0000E+00  0.0000E+00  0.1600E+02  0.1600E+02
     -9.789  0.0000E+00  0.0000E+00  0.1600E+02  0.1600E+02
     -9.625  0.0000E+00  0.0000E+00  0.1600E+02  0.1600E+02
     -9.462  0.0000E+00  0.0000E+00  0.1600E+02  0.1600E+02
     -9.298  0.0000E+00  0.0000E+00  0.1600E+02  0.1600E+02
     -9.134  0.0000E+00  0.0000E+00  0.1600E+02  0.1600E+02
     -8.970  0.0000E+00  0.0000E+00  0.1600E+02  0.1600E+02
     -8.807  0.0000E+00  0.0000E+00  0.1600E+02  0.1600E+02
     -8.643  0.0000E+00  0.0000E+00  0.1600E+02  0.1600E+02
     -8.479  0.0000E+00  0.0000E+00  0.1600E+02  0.1600E+02
     -8.316  0.0000E+00  0.0000E+00  0.1600E+02  0.1600E+02
     -8.152  0.0000E+00  0.0000E+00  0.1600E+02  0.1600E+02
     -7.988  0.0000E+00  0.0000E+00  0.1600E+02  0.1600E+02
     -7.825  0.0000E+00  0.0000E+00  0.1600E+02  0.1600E+02
     -7.661  0.0000E+00  0.0000E+00  0.1600E+02  0.1600E+02
     -7.497  0.0000E+00  0.0000E+00  0.1600E+02  0.1600E+02
     -7.334  0.0000E+00  0.0000E+00  0.1600E+02  0.1600E+02
     -7.170  0.0000E+00  0.0000E+00  0.1600E+02  0.1600E+02
     -7.006  0.0000E+00  0.0000E+00  0.1600E+02  0.1600E+02
     -6.843  0.0000E+00  0.0000E+00  0.1600E+02  0.1600E+02
     -6.679  0.0000E+00  0.0000E+00  0.1600E+02  0.1600E+02
     -6.515  0.0000E+00  0.0000E+00  0.1600E+02  0.1600E+02
     -6.351  0.0000E+00  0.0000E+00  0.1600E+02  0.1600E+02
     -6.188  0.0000E+00  0.0000E+00  0.1600E+02  0.1600E+02
     -6.024  0.0000E+00  0.0000E+00  0.1600E+02  0.1600E+02
     -5.860  0.0000E+00  0.0000E+00  0.1600E+02  0.1600E+02
     -5.697  0.0000E+00  0.0000E+00  0.1600E+02  0.1600E+02
     -5.533  0.0000E+00  0.0000E+00  0.1600E+02  0.1600E+02
     -5.369  0.0000E+00  0.0000E+00  0.1600E+02  0.1600E+02
     -5.206  0.0000E+00  0.0000E+00  0.1600E+02  0.1600E+02
     -5.042  0.0000E+00  0.0000E+00  0.1600E+02  0.1600E+02
     -4.878  0.0000E+00  0.0000E+00  0.1600E+02  0.1600E+02
     -4.715  0.0000E+00  0.0000E+00  0.1600E+02  0.1600E+02
     -4.551  0.0000E+00  0.0000E+00  0.1600E+02  0.1600E+02
     -4.387  0.0000E+00  0.0000E+00  0.1600E+02  0.1600E+02
     -4.224  0.0000E+00  0.0000E+00  0.1600E+02  0.1600E+02
     -4.060  0.0000E+00  0.0000E+00  0.1600E+02  0.1600E+02
     -3.896  0.0000E+00  0.0000E+00  0.1600E+02  0.1600E+02
     -3.732  0.0000E+00  0.0000E+00  0.1600E+02  0.1600E+02
     -3.569  0.0000E+00  0.0000E+00  0.1600E+02  0.1600E+02
     -3.405  0.0000E+00  0.0000E+00  0.1600E+02  0.1600E+02
     -3.241  0.0000E+00  0.0000E+00  0.1600E+02  0.1600E+02
     -3.078  0.0000E+00  0.0000E+00  0.1600E+02  0.1600E+02
     -2.914  0.0000E+00  0.0000E+00  0.1600E+02  0.1600E+02
     -2.750  0.0000E+00  0.0000E+00  0.1600E+02  0.1600E+02
     -2.587  0.0000E+00  0.0000E+00  0.1600E+02  0.1600E+02
     -2.423  0.3566E-07  0.0000E+00  0.1600E+02  0.1600E+02
     -2.259  0.7386E-05  0.5330E-05  0.1600E+02  0.1600E+02
     -2.096  0.2133E-03  0.1525E-03  0.1600E+02  0.1600E+02
     -1.932  0.5213E-02  0.3824E-02  0.1600E+02  0.1600E+02
     -1.768  0.5885E-01  0.4942E-01  0.1601E+02  0.1601E+02
     -1.604  0.1646E+00  0.1553E+00  0.1604E+02  0.1603E+02
     -1.441  0.2455E+00  0.2378E+00  0.1608E+02  0.1607E+02
     -1.277  0.2978E+00  0.2930E+00  0.1613E+02  0.1612E+02
     -1.113  0.3711E+00  0.3656E+00  0.1619E+02  0.1618E+02
     -0.950  0.3956E+00  0.3880E+00  0.1625E+02  0.1624E+02
     -0.786  0.4743E+00  0.4745E+00  0.1633E+02  0.1632E+02
     -0.622  0.4976E+00  0.4893E+00  0.1641E+02  0.1640E+02
     -0.459  0.5680E+00  0.5596E+00  0.1650E+02  0.1649E+02
     -0.295  0.6024E+00  0.6068E+00  0.1660E+02  0.1659E+02
     -0.131  0.6509E+00  0.6329E+00  0.1671E+02  0.1670E+02
      0.032  0.7392E+00  0.7446E+00  0.1683E+02  0.1682E+02
      0.196  0.7278E+00  0.7187E+00  0.1695E+02  0.1694E+02
      0.360  0.8715E+00  0.8623E+00  0.1709E+02  0.1708E+02
      0.523  0.8740E+00  0.8658E+00  0.1724E+02  0.1722E+02
      0.687  0.9492E+00  0.9474E+00  0.1739E+02  0.1738E+02
      0.851  0.1065E+01  0.1052E+01  0.1757E+02  0.1755E+02
      1.015  0.1144E+01  0.1148E+01  0.1776E+02  0.1774E+02
      1.178  0.1240E+01  0.1214E+01  0.1796E+02  0.1794E+02
      1.342  0.1464E+01  0.1465E+01  0.1820E+02  0.1818E+02
      1.506  0.1511E+01  0.1498E+01  0.1845E+02  0.1842E+02
      1.669  0.1659E+01  0.1654E+01  0.1872E+02  0.1869E+02
      1.833  0.1681E+01  0.1651E+01  0.1899E+02  0.1896E+02
      1.997  0.1774E+01  0.1785E+01  0.1929E+02  0.1926E+02
      2.160  0.1766E+01  0.1723E+01  0.1958E+02  0.1954E+02
      2.324  0.2537E+01  0.2414E+01  0.1999E+02  0.1994E+02
      2.488  0.2412E+01  0.2563E+01  0.2039E+02  0.2036E+02
      2.651  0.1995E+01  0.2026E+01  0.2072E+02  0.2069E+02
      2.815  0.2975E+01  0.2930E+01  0.2120E+02  0.2117E+02
      2.979  0.4491E+01  0.4487E+01  0.2194E+02  0.2191E+02
      3.143  0.4027E+01  0.4050E+01  0.2260E+02  0.2257E+02
      3.306  0.4233E+01  0.4195E+01  0.2330E+02  0.2326E+02
      3.470  0.4580E+01  0.4570E+01  0.2405E+02  0.2401E+02
      3.634  0.3980E+01  0.4018E+01  0.2470E+02  0.2467E+02
      3.797  0.3318E+01  0.3345E+01  0.2524E+02  0.2522E+02
      3.961  0.2924E+01  0.2939E+01  0.2573E+02  0.2570E+02
      4.125  0.2613E+01  0.2625E+01  0.2615E+02  0.2613E+02
      4.288  0.2395E+01  0.2433E+01  0.2655E+02  0.2653E+02
      4.452  0.2147E+01  0.2258E+01  0.2690E+02  0.2690E+02
      4.616  0.1831E+01  0.1962E+01  0.2720E+02  0.2722E+02
      4.779  0.1758E+01  0.1760E+01  0.2749E+02  0.2751E+02
      4.943  0.2035E+01  0.1882E+01  0.2782E+02  0.2782E+02
      5.107  0.9628E+00  0.9647E+00  0.2798E+02  0.2798E+02
      5.270  0.1020E+00  0.1105E+00  0.2800E+02  0.2800E+02
      5.434  0.2555E-02  0.2625E-02  0.2800E+02  0.2800E+02
      5.598  0.0000E+00  0.0000E+00  0.2800E+02  0.2800E+02
      5.762  0.0000E+00  0.0000E+00  0.2800E+02  0.2800E+02
      5.925  0.0000E+00  0.0000E+00  0.2800E+02  0.2800E+02
      6.089  0.0000E+00  0.0000E+00  0.2800E+02  0.2800E+02
      6.253  0.0000E+00  0.0000E+00  0.2800E+02  0.2800E+02
      6.416  0.0000E+00  0.0000E+00  0.2800E+02  0.2800E+02
      6.580  0.0000E+00  0.0000E+00  0.2800E+02  0.2800E+02
      6.744  0.0000E+00  0.0000E+00  0.2800E+02  0.2800E+02
      6.907  0.0000E+00  0.0000E+00  0.2800E+02  0.2800E+02
      7.071  0.0000E+00  0.0000E+00  0.2800E+02  0.2800E+02
      7.235  0.0000E+00  0.0000E+00  0.2800E+02  0.2800E+02
      7.398  0.0000E+00  0.0000E+00  0.2800E+02  0.2800E+02
      7.39846325    -41.70842529  301      2.33643872      1.00000000
    -41.708  0.0000E+00  0.0000E+00  0.0000E+00  0.0000E+00  0.0000E+00  0.0000E+00  0.0000E+00  0.0000E+00  0.0000E+00  0.0000E+00  0.0000E+00  0.0000E+00  0.0000E+00  0.0000E+00  0.0000E+00  0.0000E+00  0.0000E+00  0.0000E+00
    -41.545  0.0000E+00  0.0000E+00  0.0000E+00  0.0000E+00  0.0000E+00  0.0000E+00  0.0000E+00  0.0000E+00  0.0000E+00  0.0000E+00  0.0000E+00  0.0000E+00  0.0000E+00  0.0000E+00  0.0000E+00  0.0000E+00  0.0000E+00  0.0000E+00
    -41.381  0.0000E+00  0.0000E+00  0.0000E+00  0.0000E+00  0.0000E+00  0.0000E+00  0.0000E+00  0.0000E+00  0.0000E+00  0.0000E+00  0.0000E+00  0.0000E+00  0.0000E+00  0.0000E+00  0.0000E+00  0.0000E+00  0.0000E+00  0.0000E+00
    -41.217  0.0000E+00  0.0000E+00  0.0000E+00  0.0000E+00  0.0000E+00  0.0000E+00  0.0000E+00  0.0000E+00  0.0000E+00  0.0000E+00  0.0000E+00  0.0000E+00  0.0000E+00  0.0000E+00  0.0000E+00  0.0000E+00  0.0000E+00  0.0000E+00
    -41.054  0.0000E+00  0.0000E+00  0.0000E+00  0.0000E+00  0.0000E+00  0.0000E+00  0.0000E+00  0.0000E+00  0.0000E+00  0.0000E+00  0.0000E+00  0.0000E+00  0.0000E+00  0.0000E+00  0.0000E+00  0.0000E+00  0.0000E+00  0.0000E+00
    -40.890  0.0000E+00  0.0000E+00  0.0000E+00  0.0000E+00  0.0000E+00  0.0000E+00  0.0000E+00  0.0000E+00  0.0000E+00  0.0000E+00  0.0000E+00  0.0000E+00  0.0000E+00  0.0000E+00  0.0000E+00  0.0000E+00  0.0000E+00  0.0000E+00
    -40.726  0.0000E+00  0.0000E+00  0.0000E+00  0.0000E+00  0.0000E+00  0.0000E+00  0.0000E+00  0.0000E+00  0.0000E+00  0.0000E+00  0.0000E+00  0.0000E+00  0.0000E+00  0.0000E+00  0.0000E+00  0.0000E+00  0.0000E+00  0.0000E+00
    -40.563  0.0000E+00  0.0000E+00  0.0000E+00  0.0000E+00  0.0000E+00  0.0000E+00  0.0000E+00  0.0000E+00  0.0000E+00  0.0000E+00  0.0000E+00  0.0000E+00  0.0000E+00  0.0000E+00  0.0000E+00  0.0000E+00  0.0000E+00  0.0000E+00
    -40.399  0.0000E+00  0.0000E+00  0.0000E+00  0.0000E+00  0.0000E+00  0.0000E+00  0.0000E+00  0.0000E+00  0.0000E+00  0.0000E+00  0.0000E+00  0.0000E+00  0.0000E+00  0.0000E+00  0.0000E+00  0.0000E+00  0.0000E+00  0.0000E+00
    -40.235  0.0000E+00  0.0000E+00  0.0000E+00  0.0000E+00  0.0000E+00  0.0000E+00  0.0000E+00  0.0000E+00  0.0000E+00  0.0000E+00  0.0000E+00  0.0000E+00  0.0000E+00  0.0000E+00  0.0000E+00  0.0000E+00  0.0000E+00  0.0000E+00
    -40.072  0.0000E+00  0.0000E+00  0.0000E+00  0.0000E+00  0.0000E+00  0.0000E+00  0.0000E+00  0.0000E+00  0.0000E+00  0.0000E+00  0.0000E+00  0.0000E+00  0.0000E+00  0.0000E+00  0.0000E+00  0.0000E+00  0.0000E+00  0.0000E+00
    -39.908  0.7154E-03  0.6742E-03  0.1114E-09  0.1050E-09  0.1114E-09  0.1050E-09  0.1114E-09  0.1050E-09  0.3740E-10  0.3529E-10  0.3740E-10  0.3529E-10  0.1735E-10  0.1639E-10  0.3740E-10  0.3529E-10  0.1735E-10  0.1639E-10
    -39.744  0.1812E-01  0.1708E-01  0.2821E-08  0.2660E-08  0.2821E-08  0.2660E-08  0.2821E-08  0.2660E-08  0.9473E-09  0.8942E-09  0.9473E-09  0.8942E-09  0.4396E-09  0.4154E-09  0.9473E-09  0.8942E-09  0.4396E-09  0.4154E-09
    -39.580  0.4415E+00  0.4180E+00  0.6839E-07  0.6478E-07  0.6839E-07  0.6478E-07  0.6839E-07  0.6478E-07  0.2311E-07  0.2191E-07  0.2311E-07  0.2191E-07  0.1078E-07  0.1023E-07  0.2311E-07  0.2191E-07  0.1078E-07  0.1023E-07
    -39.417  0.3662E+01  0.3609E+01  0.5411E-06  0.5340E-06  0.5411E-06  0.5340E-06  0.5411E-06  0.5340E-06  0.1925E-06  0.1900E-06  0.1925E-06  0.1900E-06  0.9401E-07  0.9275E-07  0.1925E-06  0.1900E-06  0.9401E-07  0.9275E-07
    -39.253  0.1800E+01  0.1872E+01  0.2497E-06  0.2600E-06  0.2497E-06  0.2600E-06  0.2497E-06  0.2600E-06  0.9450E-07  0.9841E-07  0.9450E-07  0.9841E-07  0.4908E-07  0.5110E-07  0.9450E-07  0.9841E-07  0.4908E-07  0.5110E-07
    -39.089  0.9997E-01  0.1060E+00  0.1357E-07  0.1439E-07  0.1357E-07  0.1439E-07  0.1357E-07  0.1439E-07  0.5234E-08  0.5556E-08  0.5234E-08  0.5556E-08  0.2779E-08  0.2952E-08  0.5234E-08  0.5556E-08  0.2779E-08  0.2952E-08
    -38.926  0.0000E+00  0.0000E+00  0.0000E+00  0.0000E+00  0.0000E+00  0.0000E+00  0.0000E+00  0.0000E+00  0.0000E+00  0.0000E+00  0.0000E+00  0.0000E+00  0.0000E+00  0.0000E+00  0.0000E+00  0.0000E+00  0.0000E+00  0.0000E+00
    -38.762  0.0000E+00  0.0000E+00  0.0000E+00  0.0000E+00  0.0000E+00  0.0000E+00  0.0000E+00  0.0000E+00  0.0000E+00  0.0000E+00  0.0000E+00  0.0000E+00  0.0000E+00  0.0000E+00  0.0000E+00  0.0000E+00  0.0000E+00  0.0000E+00
    -38.598  0.0000E+00  0.0000E+00  0.0000E+00  0.0000E+00  0.0000E+00  0.0000E+00  0.0000E+00  0.0000E+00  0.0000E+00  0.0000E+00  0.0000E+00  0.0000E+00  0.0000E+00  0.0000E+00  0.0000E+00  0.0000E+00  0.0000E+00  0.0000E+00
    -38.435  0.0000E+00  0.0000E+00  0.0000E+00  0.0000E+00  0.0000E+00  0.0000E+00  0.0000E+00  0.0000E+00  0.0000E+00  0.0000E+00  0.0000E+00  0.0000E+00  0.0000E+00  0.0000E+00  0.0000E+00  0.0000E+00  0.0000E+00  0.0000E+00
    -38.271  0.0000E+00  0.0000E+00  0.0000E+00  0.0000E+00  0.0000E+00  0.0000E+00  0.0000E+00  0.0000E+00  0.0000E+00  0.0000E+00  0.0000E+00  0.0000E+00  0.0000E+00  0.0000E+00  0.0000E+00  0.0000E+00  0.0000E+00  0.0000E+00
    -38.107  0.0000E+00  0.0000E+00  0.0000E+00  0.0000E+00  0.0000E+00  0.0000E+00  0.0000E+00  0.0000E+00  0.0000E+00  0.0000E+00  0.0000E+00  0.0000E+00  0.0000E+00  0.0000E+00  0.0000E+00  0.0000E+00  0.0000E+00  0.0000E+00
    -37.944  0.0000E+00  0.0000E+00  0.0000E+00  0.0000E+00  0.0000E+00  0.0000E+00  0.0000E+00  0.0000E+00  0.0000E+00  0.0000E+00  0.0000E+00  0.0000E+00  0.0000E+00  0.0000E+00  0.0000E+00  0.0000E+00  0.0000E+00  0.0000E+00
    -37.780  0.0000E+00  0.0000E+00  0.0000E+00  0.0000E+00  0.0000E+00  0.0000E+00  0.0000E+00  0.0000E+00  0.0000E+00  0.0000E+00  0.0000E+00  0.0000E+00  0.0000E+00  0.0000E+00  0.0000E+00  0.0000E+00  0.0000E+00  0.0000E+00
    -37.616  0.0000E+00  0.0000E+00  0.0000E+00  0.0000E+00  0.0000E+00  0.0000E+00  0.0000E+00  0.0000E+00  0.0000E+00  0.0000E+00  0.0000E+00  0.0000E+00  0.0000E+00  0.0000E+00  0.0000E+00  0.0000E+00  0.0000E+00  0.0000E+00
    -37.452  0.0000E+00  0.0000E+00  0.0000E+00  0.0000E+00  0.0000E+00  0.0000E+00  0.0000E+00  0.0000E+00  0.0000E+00  0.0000E+00  0.0000E+00  0.0000E+00  0.0000E+00  0.0000E+00  0.0000E+00  0.0000E+00  0.0000E+00  0.0000E+00
    -37.289  0.0000E+00  0.0000E+00  0.0000E+00  0.0000E+00  0.0000E+00  0.0000E+00  0.0000E+00  0.0000E+00  0.0000E+00  0.0000E+00  0.0000E+00  0.0000E+00  0.0000E+00  0.0000E+00  0.0000E+00  0.0000E+00  0.0000E+00  0.0000E+00
    -37.125  0.0000E+00  0.0000E+00  0.0000E+00  0.0000E+00  0.0000E+00  0.0000E+00  0.0000E+00  0.0000E+00  0.0000E+00  0.0000E+00  0.0000E+00  0.0000E+00  0.0000E+00  0.0000E+00  0.0000E+00  0.0000E+00  0.0000E+00  0.0000E+00
    -36.961  0.0000E+00  0.0000E+00  0.0000E+00  0.0000E+00  0.0000E+00  0.0000E+00  0.0000E+00  0.0000E+00  0.0000E+00  0.0000E+00  0.0000E+00  0.0000E+00  0.0000E+00  0.0000E+00  0.0000E+00  0.0000E+00  0.0000E+00  0.0000E+00
    -36.798  0.0000E+00  0.0000E+00  0.0000E+00  0.0000E+00  0.0000E+00  0.0000E+00  0.0000E+00  0.0000E+00  0.0000E+00  0.0000E+00  0.0000E+00  0.0000E+00  0.0000E+00  0.0000E+00  0.0000E+00  0.0000E+00  0.0000E+00  0.0000E+00
    -36.634  0.0000E+00  0.0000E+00  0.0000E+00  0.0000E+00  0.0000E+00  0.0000E+00  0.0000E+00  0.0000E+00  0.0000E+00  0.0000E+00  0.0000E+00  0.0000E+00  0.0000E+00  0.0000E+00  0.0000E+00  0.0000E+00  0.0000E+00  0.0000E+00
    -36.470  0.0000E+00  0.0000E+00  0.0000E+00  0.0000E+00  0.0000E+00  0.0000E+00  0.0000E+00  0.0000E+00  0.0000E+00  0.0000E+00  0.0000E+00  0.0000E+00  0.0000E+00  0.0000E+00  0.0000E+00  0.0000E+00  0.0000E+00  0.0000E+00
    -36.307  0.0000E+00  0.0000E+00  0.0000E+00  0.0000E+00  0.0000E+00  0.0000E+00  0.0000E+00  0.0000E+00  0.0000E+00  0.0000E+00  0.0000E+00  0.0000E+00  0.0000E+00  0.0000E+00  0.0000E+00  0.0000E+00  0.0000E+00  0.0000E+00
    -36.143  0.0000E+00  0.0000E+00  0.0000E+00  0.0000E+00  0.0000E+00  0.0000E+00  0.0000E+00  0.0000E+00  0.0000E+00  0.0000E+00  0.0000E+00  0.0000E+00  0.0000E+00  0.0000E+00  0.0000E+00  0.0000E+00  0.0000E+00  0.0000E+00
    -35.979  0.0000E+00  0.0000E+00  0.0000E+00  0.0000E+00  0.0000E+00  0.0000E+00  0.0000E+00  0.0000E+00  0.0000E+00  0.0000E+00  0.0000E+00  0.0000E+00  0.0000E+00  0.0000E+00  0.0000E+00  0.0000E+00  0.0000E+00  0.0000E+00
    -35.816  0.0000E+00  0.0000E+00  0.0000E+00  0.0000E+00  0.0000E+00  0.0000E+00  0.0000E+00  0.0000E+00  0.0000E+00  0.0000E+00  0.0000E+00  0.0000E+00  0.0000E+00  0.0000E+00  0.0000E+00  0.0000E+00  0.0000E+00  0.0000E+00
    -35.652  0.0000E+00  0.0000E+00  0.0000E+00  0.0000E+00  0.0000E+00  0.0000E+00  0.0000E+00  0.0000E+00  0.0000E+00  0.0000E+00  0.0000E+00  0.0000E+00  0.0000E+00  0.0000E+00  0.0000E+00  0.0000E+00  0.0000E+00  0.0000E+00
    -35.488  0.0000E+00  0.0000E+00  0.0000E+00  0.0000E+00  0.0000E+00  0.0000E+00  0.0000E+00  0.0000E+00  0.0000E+00  0.0000E+00  0.0000E+00  0.0000E+00  0.0000E+00  0.0000E+00  0.0000E+00  0.0000E+00  0.0000E+00  0.0000E+00
    -35.325  0.0000E+00  0.0000E+00  0.0000E+00  0.0000E+00  0.0000E+00  0.0000E+00  0.0000E+00  0.0000E+00  0.0000E+00  0.0000E+00  0.0000E+00  0.0000E+00  0.0000E+00  0.0000E+00  0.0000E+00  0.0000E+00  0.0000E+00  0.0000E+00
    -35.161  0.0000E+00  0.0000E+00  0.0000E+00  0.0000E+00  0.0000E+00  0.0000E+00  0.0000E+00  0.0000E+00  0.0000E+00  0.0000E+00  0.0000E+00  0.0000E+00  0.0000E+00  0.0000E+00  0.0000E+00  0.0000E+00  0.0000E+00  0.0000E+00
    -34.997  0.0000E+00  0.0000E+00  0.0000E+00  0.0000E+00  0.0000E+00  0.0000E+00  0.0000E+00  0.0000E+00  0.0000E+00  0.0000E+00  0.0000E+00  0.0000E+00  0.0000E+00  0.0000E+00  0.0000E+00  0.0000E+00  0.0000E+00  0.0000E+00
    -34.833  0.0000E+00  0.0000E+00  0.0000E+00  0.0000E+00  0.0000E+00  0.0000E+00  0.0000E+00  0.0000E+00  0.0000E+00  0.0000E+00  0.0000E+00  0.0000E+00  0.0000E+00  0.0000E+00  0.0000E+00  0.0000E+00  0.0000E+00  0.0000E+00
    -34.670  0.0000E+00  0.0000E+00  0.0000E+00  0.0000E+00  0.0000E+00  0.0000E+00  0.0000E+00  0.0000E+00  0.0000E+00  0.0000E+00  0.0000E+00  0.0000E+00  0.0000E+00  0.0000E+00  0.0000E+00  0.0000E+00  0.0000E+00  0.0000E+00
    -34.506  0.0000E+00  0.0000E+00  0.0000E+00  0.0000E+00  0.0000E+00  0.0000E+00  0.0000E+00  0.0000E+00  0.0000E+00  0.0000E+00  0.0000E+00  0.0000E+00  0.0000E+00  0.0000E+00  0.0000E+00  0.0000E+00  0.0000E+00  0.0000E+00
    -34.342  0.0000E+00  0.0000E+00  0.0000E+00  0.0000E+00  0.0000E+00  0.0000E+00  0.0000E+00  0.0000E+00  0.0000E+00  0.0000E+00  0.0000E+00  0.0000E+00  0.0000E+00  0.0000E+00  0.0000E+00  0.0000E+00  0.0000E+00  0.0000E+00
    -34.179  0.0000E+00  0.0000E+00  0.0000E+00  0.0000E+00  0.0000E+00  0.0000E+00  0.0000E+00  0.0000E+00  0.0000E+00  0.0000E+00  0.0000E+00  0.0000E+00  0.0000E+00  0.0000E+00  0.0000E+00  0.0000E+00  0.0000E+00  0.0000E+00
    -34.015  0.0000E+00  0.0000E+00  0.0000E+00  0.0000E+00  0.0000E+00  0.0000E+00  0.0000E+00  0.0000E+00  0.0000E+00  0.0000E+00  0.0000E+00  0.0000E+00  0.0000E+00  0.0000E+00  0.0000E+00  0.0000E+00  0.0000E+00  0.0000E+00
    -33.851  0.0000E+00  0.0000E+00  0.0000E+00  0.0000E+00  0.0000E+00  0.0000E+00  0.0000E+00  0.0000E+00  0.0000E+00  0.0000E+00  0.0000E+00  0.0000E+00  0.0000E+00  0.0000E+00  0.0000E+00  0.0000E+00  0.0000E+00  0.0000E+00
    -33.688  0.0000E+00  0.0000E+00  0.0000E+00  0.0000E+00  0.0000E+00  0.0000E+00  0.0000E+00  0.0000E+00  0.0000E+00  0.0000E+00  0.0000E+00  0.0000E+00  0.0000E+00  0.0000E+00  0.0000E+00  0.0000E+00  0.0000E+00  0.0000E+00
    -33.524  0.0000E+00  0.0000E+00  0.0000E+00  0.0000E+00  0.0000E+00  0.0000E+00  0.0000E+00  0.0000E+00  0.0000E+00  0.0000E+00  0.0000E+00  0.0000E+00  0.0000E+00  0.0000E+00  0.0000E+00  0.0000E+00  0.0000E+00  0.0000E+00