   4   4   1   0
  0.5468690E+02  0.6025334E-09  0.6025334E-09  0.6025334E-09  0.5000000E-15
  1.000000000000000E-004
  CAR 
 unknown system                          
      5.53163741    -43.83701773  301      1.04016656      1.00000000
    -43.837  0.0000E+00  0.0000E+00  0.0000E+00  0.0000E+00
    -43.672  0.0000E+00  0.0000E+00  0.0000E+00  0.0000E+00
    -43.508  0.0000E+00  0.0000E+00  0.0000E+00  0.0000E+00
    -43.343  0.0000E+00  0.0000E+00  0.0000E+00  0.0000E+00
    -43.179  0.0000E+00  0.0000E+00  0.0000E+00  0.0000E+00
    -43.014  0.0000E+00  0.0000E+00  0.0000E+00  0.0000E+00
    -42.850  0.0000E+00  0.0000E+00  0.0000E+00  0.0000E+00
    -42.685  0.0000E+00  0.0000E+00  0.0000E+00  0.0000E+00
    -42.521  0.0000E+00  0.0000E+00  0.0000E+00  0.0000E+00
    -42.356  0.0000E+00  0.0000E+00  0.0000E+00  0.0000E+00
    -42.191  0.0000E+00  0.0000E+00  0.0000E+00  0.0000E+00
    -42.027  0.3847E-02  0.3840E-02  0.6331E-03  0.6319E-03
    -41.862  0.9913E-01  0.9894E-01  0.1695E-01  0.1691E-01
    -41.698  0.2391E+01  0.2387E+01  0.4104E+00  0.4097E+00
    -41.533  0.1584E+02  0.1584E+02  0.3018E+01  0.3016E+01
    -41.369  0.5678E+01  0.5686E+01  0.3952E+01  0.3952E+01
    -41.204  0.2800E+00  0.2805E+00  0.3998E+01  0.3998E+01
    -41.039  0.0000E+00  0.0000E+00  0.4000E+01  0.4000E+01
    -40.875  0.0000E+00  0.0000E+00  0.4000E+01  0.4000E+01
    -40.710  0.0000E+00  0.0000E+00  0.4000E+01  0.4000E+01
    -40.546  0.0000E+00  0.0000E+00  0.4000E+01  0.4000E+01
    -40.381  0.0000E+00  0.0000E+00  0.4000E+01  0.4000E+01
    -40.217  0.0000E+00  0.0000E+00  0.4000E+01  0.4000E+01
    -40.052  0.0000E+00  0.0000E+00  0.4000E+01  0.4000E+01
    -39.888  0.0000E+00  0.0000E+00  0.4000E+01  0.4000E+01
    -39.723  0.0000E+00  0.0000E+00  0.4000E+01  0.4000E+01
    -39.558  0.0000E+00  0.0000E+00  0.4000E+01  0.4000E+01
    -39.394  0.0000E+00  0.0000E+00  0.4000E+01  0.4000E+01
    -39.229  0.0000E+00  0.0000E+00  0.4000E+01  0.4000E+01
    -39.065  0.0000E+00  0.0000E+00  0.4000E+01  0.4000E+01
    -38.900  0.0000E+00  0.0000E+00  0.4000E+01  0.4000E+01
    -38.736  0.0000E+00  0.0000E+00  0.4000E+01  0.4000E+01
    -38.571  0.0000E+00  0.0000E+00  0.4000E+01  0.4000E+01
    -38.406  0.0000E+00  0.0000E+00  0.4000E+01  0.4000E+01
    -38.242  0.0000E+00  0.0000E+00  0.4000E+01  0.4000E+01
    -38.077  0.0000E+00  0.0000E+00  0.4000E+01  0.4000E+01
    -37.913  0.0000E+00  0.0000E+00  0.4000E+01  0.4000E+01
    -37.748  0.0000E+00  0.0000E+00  0.4000E+01  0.4000E+01
    -37.584  0.0000E+00  0.0000E+00  0.4000E+01  0.4000E+01
    -37.419  0.0000E+00  0.0000E+00  0.4000E+01  0.4000E+01
    -37.255  0.0000E+00  0.0000E+00  0.4000E+01  0.4000E+01
    -37.090  0.0000E+00  0.0000E+00  0.4000E+01  0.4000E+01
    -36.925  0.0000E+00  0.0000E+00  0.4000E+01  0.4000E+01
    -36.761  0.0000E+00  0.0000E+00  0.4000E+01  0.4000E+01
    -36.596  0.0000E+00  0.0000E+00  0.4000E+01  0.4000E+01
    -36.432  0.0000E+00  0.0000E+00  0.4000E+01  0.4000E+01
    -36.267  0.0000E+00  0.0000E+00  0.4000E+01  0.4000E+01
    -36.103  0.0000E+00  0.0000E+00  0.4000E+01  0.4000E+01
    -35.938  0.0000E+00  0.0000E+00  0.4000E+01  0.4000E+01
    -35.773  0.0000E+00  0.0000E+00  0.4000E+01  0.4000E+01
    -35.609  0.0000E+00  0.0000E+00  0.4000E+01  0.4000E+01
    -35.444  0.0000E+00  0.0000E+00  0.4000E+01  0.4000E+01
    -35.280  0.0000E+00  0.0000E+00  0.4000E+01  0.4000E+01
    -35.115  0.0000E+00  0.0000E+00  0.4000E+01  0.4000E+01
    -34.951  0.0000E+00  0.0000E+00  0.4000E+01  0.4000E+01
    -34.786  0.0000E+00  0.0000E+00  0.4000E+01  0.4000E+01
    -34.622  0.0000E+00  0.0000E+00  0.4000E+01  0.4000E+01
    -34.457  0.0000E+00  0.0000E+00  0.4000E+01  0.4000E+01
    -34.292  0.0000E+00  0.0000E+00  0.4000E+01  0.4000E+01
    -34.128  0.0000E+00  0.0000E+00  0.4000E+01  0.4000E+01
    -33.963  0.0000E+00  0.0000E+00  0.4000E+01  0.4000E+01
    -33.799  0.0000E+00  0.0000E+00  0.4000E+01  0.4000E+01
    -33.634  0.0000E+00  0.0000E+00  0.4000E+01  0.4000E+01
    -33.470  0.0000E+00  0.0000E+00  0.4000E+01  0.4000E+01
    -33.305  0.0000E+00  0.0000E+00  0.4000E+01  0.4000E+01
    -33.140  0.0000E+00  0.0000E+00  0.4000E+01  0.4000E+01
    -32.976  0.0000E+00  0.0000E+00  0.4000E+01  0.4000E+01
    -32.811  0.0000E+00  0.0000E+00  0.4000E+01  0.4000E+01
    -32.647  0.0000E+00  0.0000E+00  0.4000E+01  0.4000E+01
    -32.482  0.0000E+00  0.0000E+00  0.4000E+01  0.4000E+01
    -32.318  0.0000E+00  0.0000E+00  0.4000E+01  0.4000E+01
    -32.153  0.0000E+00  0.0000E+00  0.4000E+01  0.4000E+01
    -31.989  0.0000E+00  0.0000E+00  0.4000E+01  0.4000E+01
    -31.824  0.0000E+00  0.0000E+00  0.4000E+01  0.4000E+01
    -31.659  0.0000E+00  0.0000E+00  0.4000E+01  0.4000E+01
    -31.495  0.0000E+00  0.0000E+00  0.4000E+01  0.4000E+01
    -31.330  0.0000E+00  0.0000E+00  0.4000E+01  0.4000E+01
    -31.166  0.0000E+00  0.0000E+00  0.4000E+01  0.4000E+01
    -31.001  0.0000E+00  0.0000E+00  0.4000E+01  0.4000E+01
    -30.837  0.0000E+00  0.0000E+00  0.4000E+01  0.4000E+01
    -30.672  0.0000E+00  0.0000E+00  0.4000E+01  0.4000E+01
    -30.507  0.0000E+00  0.0000E+00  0.4000E+01  0.4000E+01
    -30.343  0.0000E+00  0.0000E+00  0.4000E+01  0.4000E+01
    -30.178  0.0000E+00  0.0000E+00  0.4000E+01  0.4000E+01
    -30.014  0.0000E+00  0.0000E+00  0.4000E+01  0.4000E+01
    -29.849  0.0000E+00  0.0000E+00  0.4000E+01  0.4000E+01
    -29.685  0.0000E+00  0.0000E+00  0.4000E+01  0.4000E+01
    -29.520  0.0000E+00  0.0000E+00  0.4000E+01  0.4000E+01
    -29.356  0.0000E+00  0.0000E+00  0.4000E+01  0.4000E+01
    -29.191  0.0000E+00  0.0000E+00  0.4000E+01  0.4000E+01
    -29.026  0.0000E+00  0.0000E+00  0.4000E+01  0.4000E+01
    -28.862  0.0000E+00  0.0000E+00  0.4000E+01  0.4000E+01
    -28.697  0.0000E+00  0.0000E+00  0.4000E+01  0.4000E+01
    -28.533  0.0000E+00  0.0000E+00  0.4000E+01  0.4000E+01
    -28.368  0.0000E+00  0.0000E+00  0.4000E+01  0.4000E+01
    -28.204  0.0000E+00  0.0000E+00  0.4000E+01  0.4000E+01
    -28.039  0.0000E+00  0.0000E+00  0.4000E+01  0.4000E+01
    -27.874  0.0000E+00  0.0000E+00  0.4000E+01  0.4000E+01
    -27.710  0.0000E+00  0.0000E+00  0.4000E+01  0.4000E+01
    -27.545  0.0000E+00  0.0000E+00  0.4000E+01  0.4000E+01
    -27.381  0.0000E+00  0.0000E+00  0.4000E+01  0.4000E+01
    -27.216  0.0000E+00  0.0000E+00  0.4000E+01  0.4000E+01
    -27.052  0.0000E+00  0.0000E+00  0.4000E+01  0.4000E+01
    -26.887  0.0000E+00  0.0000E+00  0.4000E+01  0.4000E+01
    -26.723  0.0000E+00  0.0000E+00  0.4000E+01  0.4000E+01
    -26.558  0.0000E+00  0.0000E+00  0.4000E+01  0.4000E+01
    -26.393  0.0000E+00  0.0000E+00  0.4000E+01  0.4000E+01
    -26.229  0.0000E+00  0.0000E+00  0.4000E+01  0.4000E+01
    -26.064  0.0000E+00  0.0000E+00  0.4000E+01  0.4000E+01
    -25.900  0.0000E+00  0.0000E+00  0.4000E+01  0.4000E+01
    -25.735  0.0000E+00  0.0000E+00  0.4000E+01  0.4000E+01
    -25.571  0.0000E+00  0.0000E+00  0.4000E+01  0.4000E+01
    -25.406  0.0000E+00  0.0000E+00  0.4000E+01  0.4000E+01
    -25.241  0.0000E+00  0.0000E+00  0.4000E+01  0.4000E+01
    -25.077  0.0000E+00  0.0000E+00  0.4000E+01  0.4000E+01
    -24.912  0.0000E+00  0.0000E+00  0.4000E+01  0.4000E+01
    -24.748  0.0000E+00  0.0000E+00  0.4000E+01  0.4000E+01
    -24.583  0.0000E+00  0.0000E+00  0.4000E+01  0.4000E+01
    -24.419  0.0000E+00  0.0000E+00  0.4000E+01  0.4000E+01
    -24.254  0.0000E+00  0.0000E+00  0.4000E+01  0.4000E+01
    -24.090  0.0000E+00  0.0000E+00  0.4000E+01  0.4000E+01
    -23.925  0.0000E+00  0.0000E+00  0.4000E+01  0.4000E+01
    -23.760  0.0000E+00  0.0000E+00  0.4000E+01  0.4000E+01
    -23.596  0.0000E+00  0.0000E+00  0.4000E+01  0.4000E+01
    -23.431  0.0000E+00  0.0000E+00  0.4000E+01  0.4000E+01
    -23.267  0.0000E+00  0.0000E+00  0.4000E+01  0.4000E+01
    -23.102  0.8413E-03  0.8363E-03  0.4000E+01  0.4000E+01
    -22.938  0.2925E-01  0.2920E-01  0.4005E+01  0.4005E+01
    -22.773  0.7694E+00  0.7680E+00  0.4132E+01  0.4131E+01
    -22.608  0.1573E+02  0.1571E+02  0.6720E+01  0.6716E+01
    -22.444  0.4784E+02  0.4785E+02  0.1459E+02  0.1459E+02
    -22.279  0.8187E+01  0.8201E+01  0.1594E+02  0.1594E+02
    -22.115  0.0000E+00  0.0000E+00  0.1600E+02  0.1600E+02
    -21.950  0.0000E+00  0.0000E+00  0.1600E+02  0.1600E+02
    -21.786  0.0000E+00  0.0000E+00  0.1600E+02  0.1600E+02
    -21.621  0.0000E+00  0.0000E+00  0.1600E+02  0.1600E+02
    -21.457  0.0000E+00  0.0000E+00  0.1600E+02  0.1600E+02
    -21.292  0.0000E+00  0.0000E+00  0.1600E+02  0.1600E+02
    -21.127  0.0000E+00  0.0000E+00  0.1600E+02  0.1600E+02
    -20.963  0.0000E+00  0.0000E+00  0.1600E+02  0.1600E+02
    -20.798  0.0000E+00  0.0000E+00  0.1600E+02  0.1600E+02
    -20.634  0.0000E+00  0.0000E+00  0.1600E+02  0.1600E+02
    -20.469  0.0000E+00  0.0000E+00  0.1600E+02  0.1600E+02
    -20.305  0.0000E+00  0.0000E+00  0.1600E+02  0.1600E+02
    -20.140  0.0000E+00  0.0000E+00  0.1600E+02  0.1600E+02
    -19.976  0.0000E+00  0.0000E+00  0.1600E+02  0.1600E+02
    -19.811  0.0000E+00  0.0000E+00  0.1600E+02  0.1600E+02
    -19.646  0.0000E+00  0.0000E+00  0.1600E+02  0.1600E+02
    -19.482  0.0000E+00  0.0000E+00  0.1600E+02  0.1600E+02
    -19.317  0.0000E+00  0.0000E+00  0.1600E+02  0.1600E+02
    -19.153  0.0000E+00  0.0000E+00  0.1600E+02  0.1600E+02
    -18.988  0.0000E+00  0.0000E+00  0.1600E+02  0.1600E+02
    -18.824  0.0000E+00  0.0000E+00  0.1600E+02  0.1600E+02
    -18.659  0.0000E+00  0.0000E+00  0.1600E+02  0.1600E+02
    -18.494  0.0000E+00  0.0000E+00  0.1600E+02  0.1600E+02
    -18.330  0.0000E+00  0.0000E+00  0.1600E+02  0.1600E+02
    -18.165  0.0000E+00  0.0000E+00  0.1600E+02  0.1600E+02
    -18.001  0.0000E+00  0.0000E+00  0.1600E+02  0.1600E+02
    -17.836  0.0000E+00  0.0000E+00  0.1600E+02  0.1600E+02
    -17.672  0.0000E+00  0.0000E+00  0.1600E+02  0.1600E+02
    -17.507  0.0000E+00  0.0000E+00  0.1600E+02  0.1600E+02
    -17.343  0.0000E+00  0.0000E+00  0.1600E+02  0.1600E+02
    -17.178  0.0000E+00  0.0000E+00  0.1600E+02  0.1600E+02
    -17.013  0.0000E+00  0.0000E+00  0.1600E+02  0.1600E+02
    -16.849  0.0000E+00  0.0000E+00  0.1600E+02  0.1600E+02
    -16.684  0.0000E+00  0.0000E+00  0.1600E+02  0.1600E+02
    -16.520  0.0000E+00  0.0000E+00  0.1600E+02  0.1600E+02
    -16.355  0.0000E+00  0.0000E+00  0.1600E+02  0.1600E+02
    -16.191  0.0000E+00  0.0000E+00  0.1600E+02  0.1600E+02
    -16.026  0.0000E+00  0.0000E+00  0.1600E+02  0.1600E+02
    -15.861  0.0000E+00  0.0000E+00  0.1600E+02  0.1600E+02
    -15.697  0.0000E+00  0.0000E+00  0.1600E+02  0.1600E+02
    -15.532  0.0000E+00  0.0000E+00  0.1600E+02  0.1600E+02
    -15.368  0.0000E+00  0.0000E+00  0.1600E+02  0.1600E+02
    -15.203  0.0000E+00  0.0000E+00  0.1600E+02  0.1600E+02
    -15.039  0.0000E+00  0.0000E+00  0.1600E+02  0.1600E+02
    -14.874  0.0000E+00  0.0000E+00  0.1600E+02  0.1600E+02
    -14.710  0.0000E+00  0.0000E+00  0.1600E+02  0.1600E+02
    -14.545  0.0000E+00  0.0000E+00  0.1600E+02  0.1600E+02
    -14.380  0.0000E+00  0.0000E+00  0.1600E+02  0.1600E+02
    -14.216  0.0000E+00  0.0000E+00  0.1600E+02  0.1600E+02
    -14.051  0.0000E+00  0.0000E+00  0.1600E+02  0.1600E+02
    -13.887  0.0000E+00  0.0000E+00  0.1600E+02  0.1600E+02
    -13.722  0.0000E+00  0.0000E+00  0.1600E+02  0.1600E+02
    -13.558  0.0000E+00  0.0000E+00  0.1600E+02  0.1600E+02
    -13.393  0.0000E+00  0.0000E+00  0.1600E+02  0.1600E+02
    -13.228  0.0000E+00  0.0000E+00  0.1600E+02  0.1600E+02
    -13.064  0.0000E+00  0.0000E+00  0.1600E+02  0.1600E+02
    -12.899  0.0000E+00  0.0000E+00  0.1600E+02  0.1600E+02
    -12.735  0.0000E+00  0.0000E+00  0.1600E+02  0.1600E+02
    -12.570  0.0000E+00  0.0000E+00  0.1600E+02  0.1600E+02
    -12.406  0.0000E+00  0.0000E+00  0.1600E+02  0.1600E+02
    -12.241  0.0000E+00  0.0000E+00  0.1600E+02  0.1600E+02
    -12.077  0.0000E+00  0.0000E+00  0.1600E+02  0.1600E+02
    -11.912  0.0000E+00  0.0000E+00  0.1600E+02  0.1600E+02
    -11.747  0.0000E+00  0.0000E+00  0.1600E+02  0.1600E+02
    -11.583  0.0000E+00  0.0000E+00  0.1600E+02  0.1600E+02
    -11.418  0.0000E+00  0.0000E+00  0.1600E+02  0.1600E+02
    -11.254  0.0000E+00  0.0000E+00  0.1600E+02  0.1600E+02
    -11.089  0.0000E+00  0.0000E+00  0.1600E+02  0.1600E+02
    -10.925  0.0000E+00  0.0000E+00  0.1600E+02  0.1600E+02
    -10.760  0.0000E+00  0.0000E+00  0.1600E+02  0.1600E+02
    -10.595  0.0000E+00  0.0000E+00  0.1600E+02  0.1600E+02
    -10.431  0.0000E+00  0.0000E+00  0.1600E+02  0.1600E+02
    -10.266  0.0000E+00  0.0000E+00  0.1600E+02  0.1600E+02
    -10.102  0.0000E+00  0.0000E+00  0.1600E+02  0.1600E+02
     -9.937  0.0000E+00  0.0000E+00  0.1600E+02  0.1600E+02
     -9.773  0.0000E+00  0.0000E+00  0.1600E+02  0.1600E+02
     -9.608  0.0000E+00  0.0000E+00  0.1600E+02  0.1600E+02
     -9.444  0.0000E+00  0.0000E+00  0.1600E+02  0.1600E+02
     -9.279  0.0000E+00  0.0000E+00  0.1600E+02  0.1600E+02
     -9.114  0.0000E+00  0.0000E+00  0.1600E+02  0.1600E+02
     -8.950  0.0000E+00  0.0000E+00  0.1600E+02  0.1600E+02
     -8.785  0.0000E+00  0.0000E+00  0.1600E+02  0.1600E+02
     -8.621  0.0000E+00  0.0000E+00  0.1600E+02  0.1600E+02
     -8.456  0.0000E+00  0.0000E+00  0.1600E+02  0.1600E+02
     -8.292  0.0000E+00  0.0000E+00  0.1600E+02  0.1600E+02
     -8.127  0.0000E+00  0.0000E+00  0.1600E+02  0.1600E+02
     -7.962  0.0000E+00  0.0000E+00  0.1600E+02  0.1600E+02
     -7.798  0.0000E+00  0.0000E+00  0.1600E+02  0.1600E+02
     -7.633  0.0000E+00  0.0000E+00  0.1600E+02  0.1600E+02
     -7.469  0.0000E+00  0.0000E+00  0.1600E+02  0.1600E+02
     -7.304  0.0000E+00  0.0000E+00  0.1600E+02  0.1600E+02
     -7.140  0.0000E+00  0.0000E+00  0.1600E+02  0.1600E+02
     -6.975  0.0000E+00  0.0000E+00  0.1600E+02  0.1600E+02
     -6.811  0.0000E+00  0.0000E+00  0.1600E+02  0.1600E+02
     -6.646  0.0000E+00  0.0000E+00  0.1600E+02  0.1600E+02
     -6.481  0.0000E+00  0.0000E+00  0.1600E+02  0.1600E+02
     -6.317  0.0000E+00  0.0000E+00  0.1600E+02  0.1600E+02
     -6.152  0.0000E+00  0.0000E+00  0.1600E+02  0.1600E+02
     -5.988  0.0000E+00  0.0000E+00  0.1600E+02  0.1600E+02
     -5.823  0.0000E+00  0.0000E+00  0.1600E+02  0.1600E+02
     -5.659  0.0000E+00  0.0000E+00  0.1600E+02  0.1600E+02
     -5.494  0.0000E+00  0.0000E+00  0.1600E+02  0.1600E+02
     -5.329  0.0000E+00  0.0000E+00  0.1600E+02  0.1600E+02
     -5.165  0.0000E+00  0.0000E+00  0.1600E+02  0.1600E+02
     -5.000  0.0000E+00  0.0000E+00  0.1600E+02  0.1600E+02
     -4.836  0.0000E+00  0.0000E+00  0.1600E+02  0.1600E+02
     -4.671  0.0000E+00  0.0000E+00  0.1600E+02  0.1600E+02
     -4.507  0.0000E+00  0.0000E+00  0.1600E+02  0.1600E+02
     -4.342  0.0000E+00  0.0000E+00  0.1600E+02  0.1600E+02
     -4.178  0.0000E+00  0.0000E+00  0.1600E+02  0.1600E+02
     -4.013  0.0000E+00  0.0000E+00  0.1600E+02  0.1600E+02
     -3.848  0.0000E+00  0.0000E+00  0.1600E+02  0.1600E+02
     -3.684  0.0000E+00  0.0000E+00  0.1600E+02  0.1600E+02
     -3.519  0.0000E+00  0.0000E+00  0.1600E+02  0.1600E+02
     -3.355  0.0000E+00  0.0000E+00  0.1600E+02  0.1600E+02
     -3.190  0.0000E+00  0.0000E+00  0.1600E+02  0.1600E+02
     -3.026  0.1037E-05  0.1012E-05  0.1600E+02  0.1600E+02
     -2.861  0.4275E-04  0.4170E-04  0.1600E+02  0.1600E+02
     -2.696  0.1159E-02  0.1132E-02  0.1600E+02  0.1600E+02
     -2.532  0.2463E-01  0.2415E-01  0.1600E+02  0.1600E+02
     -2.367  0.1562E+00  0.1550E+00  0.1603E+02  0.1603E+02
     -2.203  0.3070E+00  0.3061E+00  0.1608E+02  0.1608E+02
     -2.038  0.4111E+00  0.4103E+00  0.1615E+02  0.1615E+02
     -1.874  0.4924E+00  0.4919E+00  0.1623E+02  0.1623E+02
     -1.709  0.5877E+00  0.5872E+00  0.1633E+02  0.1633E+02
     -1.545  0.6411E+00  0.6404E+00  0.1643E+02  0.1643E+02
     -1.380  0.7380E+00  0.7375E+00  0.1655E+02  0.1655E+02
     -1.215  0.7655E+00  0.7647E+00  0.1668E+02  0.1668E+02
     -1.051  0.8939E+00  0.8939E+00  0.1683E+02  0.1683E+02
     -0.886  0.9064E+00  0.9054E+00  0.1698E+02  0.1698E+02
     -0.722  0.1031E+01  0.1031E+01  0.1715E+02  0.1715E+02
     -0.557  0.1083E+01  0.1083E+01  0.1733E+02  0.1732E+02
     -0.393  0.1164E+01  0.1162E+01  0.1752E+02  0.1752E+02
     -0.228  0.1292E+01  0.1294E+01  0.1773E+02  0.1773E+02
     -0.063  0.1337E+01  0.1336E+01  0.1795E+02  0.1795E+02
      0.101  0.1566E+01  0.1565E+01  0.1821E+02  0.1821E+02
      0.266  0.1637E+01  0.1636E+01  0.1848E+02  0.1848E+02
      0.430  0.1667E+01  0.1668E+01  0.1875E+02  0.1875E+02
      0.595  0.1627E+01  0.1627E+01  0.1902E+02  0.1902E+02
      0.759  0.1702E+01  0.1699E+01  0.1930E+02  0.1930E+02
      0.924  0.2313E+01  0.2309E+01  0.1969E+02  0.1968E+02
      1.088  0.2741E+01  0.2740E+01  0.2014E+02  0.2013E+02
      1.253  0.2693E+01  0.2695E+01  0.2058E+02  0.2058E+02
      1.418  0.2669E+01  0.2668E+01  0.2102E+02  0.2102E+02
      1.582  0.3752E+01  0.3742E+01  0.2164E+02  0.2164E+02
      1.747  0.6036E+01  0.6031E+01  0.2264E+02  0.2263E+02
      1.911  0.5496E+01  0.5503E+01  0.2354E+02  0.2354E+02
      2.076  0.4566E+01  0.4570E+01  0.2429E+02  0.2429E+02
      2.240  0.4114E+01  0.4117E+01  0.2498E+02  0.2497E+02
      2.405  0.3783E+01  0.3785E+01  0.2560E+02  0.2560E+02
      2.570  0.3463E+01  0.3481E+01  0.2617E+02  0.2617E+02
      2.734  0.3085E+01  0.3144E+01  0.2668E+02  0.2669E+02
      2.899  0.2704E+01  0.2803E+01  0.2713E+02  0.2715E+02
      3.063  0.2703E+01  0.2636E+01  0.2757E+02  0.2759E+02
      3.228  0.2174E+01  0.2102E+01  0.2793E+02  0.2794E+02
      3.392  0.3826E+00  0.3653E+00  0.2800E+02  0.2800E+02
      3.557  0.1449E-01  0.9352E-02  0.2800E+02  0.2800E+02
      3.721  0.0000E+00  0.0000E+00  0.2800E+02  0.2800E+02
      3.886  0.0000E+00  0.0000E+00  0.2800E+02  0.2800E+02
      4.051  0.0000E+00  0.0000E+00  0.2800E+02  0.2800E+02
      4.215  0.0000E+00  0.0000E+00  0.2800E+02  0.2800E+02
      4.380  0.0000E+00  0.0000E+00  0.2800E+02  0.2800E+02
      4.544  0.0000E+00  0.0000E+00  0.2800E+02  0.2800E+02
      4.709  0.0000E+00  0.0000E+00  0.2800E+02  0.2800E+02
      4.873  0.0000E+00  0.0000E+00  0.2800E+02  0.2800E+02
      5.038  0.0000E+00  0.0000E+00  0.2800E+02  0.2800E+02
      5.203  0.0000E+00  0.0000E+00  0.2800E+02  0.2800E+02
      5.367  0.0000E+00  0.0000E+00  0.2800E+02  0.2800E+02
      5.532  0.0000E+00  0.0000E+00  0.2800E+02  0.2800E+02
      5.53163741    -43.83701773  301      1.04016656      1.00000000
    -43.837  0.0000E+00  0.0000E+00  0.0000E+00  0.0000E+00  0.0000E+00  0.0000E+00  0.0000E+00  0.0000E+00  0.0000E+00  0.0000E+00  0.0000E+00  0.0000E+00  0.0000E+00  0.0000E+00  0.0000E+00  0.0000E+00  0.0000E+00  0.0000E+00
    -43.672  0.0000E+00  0.0000E+00  0.0000E+00  0.0000E+00  0.0000E+00  0.0000E+00  0.0000E+00  0.0000E+00  0.0000E+00  0.0000E+00  0.0000E+00  0.0000E+00  0.0000E+00  0.0000E+00  0.0000E+00  0.0000E+00  0.0000E+00  0.0000E+00
    -43.508  0.0000E+00  0.0000E+00  0.0000E+00  0.0000E+00  0.0000E+00  0.0000E+00  0.0000E+00  0.0000E+00  0.0000E+00  0.0000E+00  0.0000E+00  0.0000E+00  0.0000E+00  0.0000E+00  0.0000E+00  0.0000E+00  0.0000E+00  0.0000E+00
    -43.343  0.0000E+00  0.0000E+00  0.0000E+00  0.0000E+00  0.0000E+00  0.0000E+00  0.0000E+00  0.0000E+00  0.0000E+00  0.0000E+00  0.0000E+00  0.0000E+00  0.0000E+00  0.0000E+00  0.0000E+00  0.0000E+00  0.0000E+00  0.0000E+00
    -43.179  0.0000E+00  0.0000E+00  0.0000E+00  0.0000E+00  0.0000E+00  0.0000E+00  0.0000E+00  0.0000E+00  0.0000E+00  0.0000E+00  0.0000E+00  0.0000E+00  0.0000E+00  0.0000E+00  0.0000E+00  0.0000E+00  0.0000E+00  0.0000E+00
    -43.014  0.0000E+00  0.0000E+00  0.0000E+00  0.0000E+00  0.0000E+00  0.0000E+00  0.0000E+00  0.0000E+00  0.0000E+00  0.0000E+00  0.0000E+00  0.0000E+00  0.0000E+00  0.0000E+00  0.0000E+00  0.0000E+00  0.0000E+00  0.0000E+00
    -42.850  0.0000E+00  0.0000E+00  0.0000E+00  0.0000E+00  0.0000E+00  0.0000E+00  0.0000E+00  0.0000E+00  0.0000E+00  0.0000E+00  0.0000E+00  0.0000E+00  0.0000E+00  0.0000E+00  0.0000E+00  0.0000E+00  0.0000E+00  0.0000E+00
    -42.685  0.0000E+00  0.0000E+00  0.0000E+00  0.0000E+00  0.0000E+00  0.0000E+00  0.0000E+00  0.0000E+00  0.0000E+00  0.0000E+00  0.0000E+00  0.0000E+00  0.0000E+00  0.0000E+00  0.0000E+00  0.0000E+00  0.0000E+00  0.0000E+00
    -42.521  0.0000E+00  0.0000E+00  0.0000E+00  0.0000E+00  0.0000E+00  0.0000E+00  0.0000E+00  0.0000E+00  0.0000E+00  0.0000E+00  0.0000E+00  0.0000E+00  0.0000E+00  0.0000E+00  0.0000E+00  0.0000E+00  0.0000E+00  0.0000E+00
    -42.356  0.0000E+00  0.0000E+00  0.0000E+00  0.0000E+00  0.0000E+00  0.0000E+00  0.0000E+00  0.0000E+00  0.0000E+00  0.0000E+00  0.0000E+00  0.0000E+00  0.0000E+00  0.0000E+00  0.0000E+00  0.0000E+00  0.0000E+00  0.0000E+00
    -42.191  0.0000E+00  0.0000E+00  0.0000E+00  0.0000E+00  0.0000E+00  0.0000E+00  0.0000E+00  0.0000E+00  0.0000E+00  0.0000E+00  0.0000E+00  0.0000E+00  0.0000E+00  0.0000E+00  0.0000E+00  0.0000E+00  0.0000E+00  0.0000E+00
    -42.027  0.9490E-03  0.9473E-03  0.4447E-11  0.4429E-11  0.4447E-11  0.4429E-11  0.4447E-11  0.4429E-11  0.1509E-11  0.1495E-11  0.1509E-11  0.1495E-11  0.7541E-12  0.7375E-12  0.1509E-11  0.1495E-11  0.7541E-12  0.7375E-12
    -41.862  0.2445E-01  0.2441E-01  0.1146E-09  0.1141E-09  0.1146E-09  0.1141E-09  0.1146E-09  0.1141E-09  0.3887E-10  0.3851E-10  0.3887E-10  0.3851E-10  0.1943E-10  0.1900E-10  0.3887E-10  0.3851E-10  0.1943E-10  0.1900E-10
    -41.698  0.5898E+00  0.5889E+00  0.2760E-08  0.2749E-08  0.2760E-08  0.2749E-08  0.2760E-08  0.2749E-08  0.9376E-09  0.9291E-09  0.9376E-09  0.9291E-09  0.4693E-09  0.4591E-09  0.9376E-09  0.9291E-09  0.4693E-09  0.4591E-09
    -41.533  0.3908E+01  0.3907E+01  0.1812E-07  0.1807E-07  0.1812E-07  0.1807E-07  0.1812E-07  0.1807E-07  0.6214E-08  0.6166E-08  0.6214E-08  0.6166E-08  0.3139E-08  0.3075E-08  0.6214E-08  0.6166E-08  0.3139E-08  0.3075E-08
    -41.369  0.1401E+01  0.1403E+01  0.6423E-08  0.6417E-08  0.6423E-08  0.6417E-08  0.6423E-08  0.6417E-08  0.2227E-08  0.2214E-08  0.2227E-08  0.2214E-08  0.1137E-08  0.1116E-08  0.2227E-08  0.2214E-08  0.1137E-08  0.1116E-08
    -41.204  0.6906E-01  0.6919E-01  0.3157E-09  0.3156E-09  0.3157E-09  0.3156E-09  0.3157E-09  0.3156E-09  0.1098E-09  0.1092E-09  0.1098E-09  0.1092E-09  0.5625E-10  0.5520E-10  0.1098E-09  0.1092E-09  0.5625E-10  0.5520E-10
    -41.039  0.0000E+00  0.0000E+00  0.0000E+00  0.0000E+00  0.0000E+00  0.0000E+00  0.0000E+00  0.0000E+00  0.0000E+00  0.0000E+00  0.0000E+00  0.0000E+00  0.0000E+00  0.0000E+00  0.0000E+00  0.0000E+00  0.0000E+00  0.0000E+00
    -40.875  0.0000E+00  0.0000E+00  0.0000E+00  0.0000E+00  0.0000E+00  0.0000E+00  0.0000E+00  0.0000E+00  0.0000E+00  0.0000E+00  0.0000E+00  0.0000E+00  0.0000E+00  0.0000E+00  0.0000E+00  0.0000E+00  0.0000E+00  0.0000E+00
    -40.710  0.0000E+00  0.0000E+00  0.0000E+00  0.0000E+00  0.0000E+00  0.0000E+00  0.0000E+00  0.0000E+00  0.0000E+00  0.0000E+00  0.0000E+00  0.0000E+00  0.0000E+00  0.0000E+00  0.0000E+00  0.0000E+00  0.0000E+00  0.0000E+00
    -40.546  0.0000E+00  0.0000E+00  0.0000E+00  0.0000E+00  0.0000E+00  0.0000E+00  0.0000E+00  0.0000E+00  0.0000E+00  0.0000E+00  0.0000E+00  0.0000E+00  0.0000E+00  0.0000E+00  0.0000E+00  0.0000E+00  0.0000E+00  0.0000E+00
    -40.381  0.0000E+00  0.0000E+00  0.0000E+00  0.0000E+00  0.0000E+00  0.0000E+00  0.0000E+00  0.0000E+00  0.0000E+00  0.0000E+00  0.0000E+00  0.0000E+00  0.0000E+00  0.0000E+00  0.0000E+00  0.0000E+00  0.0000E+00  0.0000E+00
    -40.217  0.0000E+00  0.0000E+00  0.0000E+00  0.0000E+00  0.0000E+00  0.0000E+00  0.0000E+00  0.0000E+00  0.0000E+00  0.0000E+00  0.0000E+00  0.0000E+00  0.0000E+00  0.0000E+00  0.0000E+00  0.0000E+00  0.0000E+00  0.0000E+00
    -40.052  0.0000E+00  0.0000E+00  0.0000E+00  0.0000E+00  0.0000E+00  0.0000E+00  0.0000E+00  0.0000E+00  0.0000E+00  0.0000E+00  0.0000E+00  0.0000E+00  0.0000E+00  0.0000E+00  0.0000E+00  0.0000E+00  0.0000E+00  0.0000E+00
    -39.888  0.0000E+00  0.0000E+00  0.0000E+00  0.0000E+00  0.0000E+00  0.0000E+00  0.0000E+00  0.0000E+00  0.0000E+00  0.0000E+00  0.0000E+00  0.0000E+00  0.0000E+00  0.0000E+00  0.0000E+00  0.0000E+00  0.0000E+00  0.0000E+00
    -39.723  0.0000E+00  0.0000E+00  0.0000E+00  0.0000E+00  0.0000E+00  0.0000E+00  0.0000E+00  0.0000E+00  0.0000E+00  0.0000E+00  0.0000E+00  0.0000E+00  0.0000E+00  0.0000E+00  0.0000E+00  0.0000E+00  0.0000E+00  0.0000E+00
    -39.558  0.0000E+00  0.0000E+00  0.0000E+00  0.0000E+00  0.0000E+00  0.0000E+00  0.0000E+00  0.0000E+00  0.0000E+00  0.0000E+00  0.0000E+00  0.0000E+00  0.0000E+00  0.0000E+00  0.0000E+00  0.0000E+00  0.0000E+00  0.0000E+00
    -39.394  0.0000E+00  0.0000E+00  0.0000E+00  0.0000E+00  0.0000E+00  0.0000E+00  0.0000E+00  0.0000E+00  0.0000E+00  0.0000E+00  0.0000E+00  0.0000E+00  0.0000E+00  0.0000E+00  0.0000E+00  0.0000E+00  0.0000E+00  0.0000E+00
    -39.229  0.0000E+00  0.0000E+00  0.0000E+00  0.0000E+00  0.0000E+00  0.0000E+00  0.0000E+00  0.0000E+00  0.0000E+00  0.0000E+00  0.0000E+00  0.0000E+00  0.0000E+00  0.0000E+00  0.0000E+00  0.0000E+00  0.0000E+00  0.0000E+00
    -39.065  0.0000E+00  0.0000E+00  0.0000E+00  0.0000E+00  0.0000E+00  0.0000E+00  0.0000E+00  0.0000E+00  0.0000E+00  0.0000E+00  0.0000E+00  0.0000E+00  0.0000E+00  0.0000E+00  0.0000E+00  0.0000E+00  0.0000E+00  0.0000E+00
    -38.900  0.0000E+00  0.0000E+00  0.0000E+00  0.0000E+00  0.0000E+00  0.0000E+00  0.0000E+00  0.0000E+00  0.0000E+00  0.0000E+00  0.0000E+00  0.0000E+00  0.0000E+00  0.0000E+00  0.0000E+00  0.0000E+00  0.0000E+00  0.0000E+00
    -38.736  0.0000E+00  0.0000E+00  0.0000E+00  0.0000E+00  0.0000E+00  0.0000E+00  0.0000E+00  0.0000E+00  0.0000E+00  0.0000E+00  0.0000E+00  0.0000E+00  0.0000E+00  0.0000E+00  0.0000E+00  0.0000E+00  0.0000E+00  0.0000E+00
    -38.571  0.0000E+00  0.0000E+00  0.0000E+00  0.0000E+00  0.0000E+00  0.0000E+00  0.0000E+00  0.0000E+00  0.0000E+00  0.0000E+00  0.0000E+00  0.0000E+00  0.0000E+00  0.0000E+00  0.0000E+00  0.0000E+00  0.0000E+00  0.0000E+00
    -38.406  0.0000E+00  0.0000E+00  0.0000E+00  0.0000E+00  0.0000E+00  0.0000E+00  0.0000E+00  0.0000E+00  0.0000E+00  0.0000E+00  0.0000E+00  0.0000E+00  0.0000E+00  0.0000E+00  0.0000E+00  0.0000E+00  0.0000E+00  0.0000E+00
    -38.242  0.0000E+00  0.0000E+00  0.0000E+00  0.0000E+00  0.0000E+00  0.0000E+00  0.0000E+00  0.0000E+00  0.0000E+00  0.0000E+00  0.0000E+00  0.0000E+00  0.0000E+00  0.0000E+00  0.0000E+00  0.0000E+00  0.0000E+00  0.0000E+00
    -38.077  0.0000E+00  0.0000E+00  0.0000E+00  0.0000E+00  0.0000E+00  0.0000E+00  0.0000E+00  0.0000E+00  0.0000E+00  0.0000E+00  0.0000E+00  0.0000E+00  0.0000E+00  0.0000E+00  0.0000E+00  0.0000E+00  0.0000E+00  0.0000E+00
    -37.913  0.0000E+00  0.0000E+00  0.0000E+00  0.0000E+00  0.0000E+00  0.0000E+00  0.0000E+00  0.0000E+00  0.0000E+00  0.0000E+00  0.0000E+00  0.0000E+00  0.0000E+00  0.0000E+00  0.0000E+00  0.0000E+00  0.0000E+00  0.0000E+00
    -37.748  0.0000E+00  0.0000E+00  0.0000E+00  0.0000E+00  0.0000E+00  0.0000E+00  0.0000E+00  0.0000E+00  0.0000E+00  0.0000E+00  0.0000E+00  0.0000E+00  0.0000E+00  0.0000E+00  0.0000E+00  0.0000E+00  0.0000E+00  0.0000E+00
    -37.584  0.0000E+00  0.0000E+00  0.0000E+00  0.0000E+00  0.0000E+00  0.0000E+00  0.0000E+00  0.0000E+00  0.0000E+00  0.0000E+00  0.0000E+00  0.0000E+00  0.0000E+00  0.0000E+00  0.0000E+00  0.0000E+00  0.0000E+00  0.0000E+00
    -37.419  0.0000E+00  0.0000E+00  0.0000E+00  0.0000E+00  0.0000E+00  0.0000E+00  0.0000E+00  0.0000E+00  0.0000E+00  0.0000E+00  0.0000E+00  0.0000E+00  0.0000E+00  0.0000E+00  0.0000E+00  0.0000E+00  0.0000E+00  0.0000E+00
    -37.255  0.0000E+00  0.0000E+00  0.0000E+00  0.0000E+00  0.0000E+00  0.0000E+00  0.0000E+00  0.0000E+00  0.0000E+00  0.0000E+00  0.0000E+00  0.0000E+00  0.0000E+00  0.0000E+00  0.0000E+00  0.0000E+00  0.0000E+00  0.0000E+00
    -37.090  0.0000E+00  0.0000E+00  0.0000E+00  0.0000E+00  0.0000E+00  0.0000E+00  0.0000E+00  0.0000E+00  0.0000E+00  0.0000E+00  0.0000E+00  0.0000E+00  0.0000E+00  0.0000E+00  0.0000E+00  0.0000E+00  0.0000E+00  0.0000E+00
    -36.925  0.0000E+00  0.0000E+00  0.0000E+00  0.0000E+00  0.0000E+00  0.0000E+00  0.0000E+00  0.0000E+00  0.0000E+00  0.0000E+00  0.0000E+00  0.0000E+00  0.0000E+00  0.0000E+00  0.0000E+00  0.0000E+00  0.0000E+00  0.0000E+00
    -36.761  0.0000E+00  0.0000E+00  0.0000E+00  0.0000E+00  0.0000E+00  0.0000E+00  0.0000E+00  0.0000E+00  0.0000E+00  0.0000E+00  0.0000E+00  0.0000E+00  0.0000E+00  0.0000E+00  0.0000E+00  0.0000E+00  0.0000E+00  0.0000E+00
    -36.596  0.0000E+00  0.0000E+00  0.0000E+00  0.0000E+00  0.0000E+00  0.0000E+00  0.0000E+00  0.0000E+00  0.0000E+00  0.0000E+00  0.0000E+00  0.0000E+00  0.0000E+00  0.0000E+00  0.0000E+00  0.0000E+00  0.0000E+00  0.0000E+00
    -36.432  0.0000E+00  0.0000E+00  0.0000E+00  0.0000E+00  0.0000E+00  0.0000E+00  0.0000E+00  0.0000E+00  0.0000E+00  0.0000E+00  0.0000E+00  0.0000E+00  0.0000E+00  0.0000E+00  0.0000E+00  0.0000E+00  0.0000E+00  0.0000E+00
    -36.267  0.0000E+00  0.0000E+00  0.0000E+00  0.0000E+00  0.0000E+00  0.0000E+00  0.0000E+00  0.0000E+00  0.0000E+00  0.0000E+00  0.0000E+00  0.0000E+00  0.0000E+00  0.0000E+00  0.0000E+00  0.0000E+00  0.0000E+00  0.0000E+00
    -36.103  0.0000E+00  0.0000E+00  0.0000E+00  0.0000E+00  0.0000E+00  0.0000E+00  0.0000E+00  0.0000E+00  0.0000E+00  0.0000E+00  0.0000E+00  0.0000E+00  0.0000E+00  0.0000E+00  0.0000E+00  0.0000E+00  0.0000E+00  0.0000E+00
    -35.938  0.0000E+00  0.0000E+00  0.0000E+00  0.0000E+00  0.0000E+00  0.0000E+00  0.0000E+00  0.0000E+00  0.0000E+00  0.0000E+00  0.0000E+00  0.0000E+00  0.0000E+00  0.0000E+00  0.0000E+00  0.0000E+00  0.0000E+00  0.0000E+00
    -35.773  0.0000E+00  0.0000E+00  0.0000E+00  0.0000E+00  0.0000E+00  0.0000E+00  0.0000E+00  0.0000E+00  0.0000E+00  0.0000E+00  0.0000E+00  0.0000E+00  0.0000E+00  0.0000E+00  0.0000E+00  0.0000E+00  0.0000E+00  0.0000E+00
    -35.609  0.0000E+00  0.0000E+00  0.0000E+00  0.0000E+00  0.0000E+00  0.0000E+00  0.0000E+00  0.0000E+00  0.0000E+00  0.0000E+00  0.0000E+00  0.0000E+00  0.0000E+00  0.0000E+00  0.0000E+00  0.0000E+00  0.0000E+00  0.0000E+00