   8   8   1   0
  0.2197855E+02  0.4446514E-09  0.4446514E-09  0.8893028E-09  0.5000000E-15
  1.000000000000000E-004
  CAR 
 unknown system                          
     10.63856537    -27.87993707  301      5.04503097      1.00000000
    -27.880  0.0000E+00  0.0000E+00  0.0000E+00  0.0000E+00
    -27.752  0.0000E+00  0.0000E+00  0.0000E+00  0.0000E+00
    -27.623  0.0000E+00  0.0000E+00  0.0000E+00  0.0000E+00
    -27.495  0.0000E+00  0.0000E+00  0.0000E+00  0.0000E+00
    -27.366  0.0000E+00  0.0000E+00  0.0000E+00  0.0000E+00
    -27.238  0.0000E+00  0.0000E+00  0.0000E+00  0.0000E+00
    -27.110  0.0000E+00  0.0000E+00  0.0000E+00  0.0000E+00
    -26.981  0.0000E+00  0.0000E+00  0.0000E+00  0.0000E+00
    -26.853  0.0000E+00  0.0000E+00  0.0000E+00  0.0000E+00
    -26.724  0.0000E+00  0.0000E+00  0.0000E+00  0.0000E+00
    -26.596  0.2446E-02  0.2453E-02  0.3140E-03  0.3149E-03
    -26.468  0.3066E-01  0.3073E-01  0.4250E-02  0.4261E-02
    -26.339  0.3934E+00  0.3944E+00  0.5476E-01  0.5490E-01
    -26.211  0.4397E+01  0.4406E+01  0.6193E+00  0.6206E+00
    -26.082  0.1912E+02  0.1911E+02  0.3074E+01  0.3075E+01
    -25.954  0.1706E+02  0.1703E+02  0.5264E+01  0.5261E+01
    -25.826  0.5151E+01  0.5169E+01  0.5925E+01  0.5925E+01
    -25.697  0.4614E+00  0.4647E+00  0.5995E+01  0.5995E+01
    -25.569  0.0000E+00  0.0000E+00  0.6000E+01  0.6000E+01
    -25.440  0.0000E+00  0.0000E+00  0.6000E+01  0.6000E+01
    -25.312  0.0000E+00  0.0000E+00  0.6000E+01  0.6000E+01
    -25.184  0.0000E+00  0.0000E+00  0.6000E+01  0.6000E+01
    -25.055  0.0000E+00  0.0000E+00  0.6000E+01  0.6000E+01
    -24.927  0.0000E+00  0.0000E+00  0.6000E+01  0.6000E+01
    -24.798  0.0000E+00  0.0000E+00  0.6000E+01  0.6000E+01
    -24.670  0.0000E+00  0.0000E+00  0.6000E+01  0.6000E+01
    -24.542  0.0000E+00  0.0000E+00  0.6000E+01  0.6000E+01
    -24.413  0.0000E+00  0.0000E+00  0.6000E+01  0.6000E+01
    -24.285  0.0000E+00  0.0000E+00  0.6000E+01  0.6000E+01
    -24.156  0.0000E+00  0.0000E+00  0.6000E+01  0.6000E+01
    -24.028  0.0000E+00  0.0000E+00  0.6000E+01  0.6000E+01
    -23.900  0.0000E+00  0.0000E+00  0.6000E+01  0.6000E+01
    -23.771  0.0000E+00  0.0000E+00  0.6000E+01  0.6000E+01
    -23.643  0.0000E+00  0.0000E+00  0.6000E+01  0.6000E+01
    -23.515  0.0000E+00  0.0000E+00  0.6000E+01  0.6000E+01
    -23.386  0.0000E+00  0.0000E+00  0.6000E+01  0.6000E+01
    -23.258  0.0000E+00  0.0000E+00  0.6000E+01  0.6000E+01
    -23.129  0.0000E+00  0.0000E+00  0.6000E+01  0.6000E+01
    -23.001  0.0000E+00  0.0000E+00  0.6000E+01  0.6000E+01
    -22.873  0.0000E+00  0.0000E+00  0.6000E+01  0.6000E+01
    -22.744  0.0000E+00  0.0000E+00  0.6000E+01  0.6000E+01
    -22.616  0.0000E+00  0.0000E+00  0.6000E+01  0.6000E+01
    -22.487  0.0000E+00  0.0000E+00  0.6000E+01  0.6000E+01
    -22.359  0.0000E+00  0.0000E+00  0.6000E+01  0.6000E+01
    -22.231  0.0000E+00  0.0000E+00  0.6000E+01  0.6000E+01
    -22.102  0.0000E+00  0.0000E+00  0.6000E+01  0.6000E+01
    -21.974  0.0000E+00  0.0000E+00  0.6000E+01  0.6000E+01
    -21.845  0.0000E+00  0.0000E+00  0.6000E+01  0.6000E+01
    -21.717  0.0000E+00  0.0000E+00  0.6000E+01  0.6000E+01
    -21.589  0.0000E+00  0.0000E+00  0.6000E+01  0.6000E+01
    -21.460  0.0000E+00  0.0000E+00  0.6000E+01  0.6000E+01
    -21.332  0.0000E+00  0.0000E+00  0.6000E+01  0.6000E+01
    -21.203  0.0000E+00  0.0000E+00  0.6000E+01  0.6000E+01
    -21.075  0.0000E+00  0.0000E+00  0.6000E+01  0.6000E+01
    -20.947  0.0000E+00  0.0000E+00  0.6000E+01  0.6000E+01
    -20.818  0.0000E+00  0.0000E+00  0.6000E+01  0.6000E+01
    -20.690  0.0000E+00  0.0000E+00  0.6000E+01  0.6000E+01
    -20.561  0.0000E+00  0.0000E+00  0.6000E+01  0.6000E+01
    -20.433  0.0000E+00  0.0000E+00  0.6000E+01  0.6000E+01
    -20.305  0.0000E+00  0.0000E+00  0.6000E+01  0.6000E+01
    -20.176  0.0000E+00  0.0000E+00  0.6000E+01  0.6000E+01
    -20.048  0.0000E+00  0.0000E+00  0.6000E+01  0.6000E+01
    -19.919  0.0000E+00  0.0000E+00  0.6000E+01  0.6000E+01
    -19.791  0.0000E+00  0.0000E+00  0.6000E+01  0.6000E+01
    -19.663  0.0000E+00  0.0000E+00  0.6000E+01  0.6000E+01
    -19.534  0.0000E+00  0.0000E+00  0.6000E+01  0.6000E+01
    -19.406  0.0000E+00  0.0000E+00  0.6000E+01  0.6000E+01
    -19.277  0.0000E+00  0.0000E+00  0.6000E+01  0.6000E+01
    -19.149  0.0000E+00  0.0000E+00  0.6000E+01  0.6000E+01
    -19.021  0.0000E+00  0.0000E+00  0.6000E+01  0.6000E+01
    -18.892  0.0000E+00  0.0000E+00  0.6000E+01  0.6000E+01
    -18.764  0.0000E+00  0.0000E+00  0.6000E+01  0.6000E+01
    -18.635  0.0000E+00  0.0000E+00  0.6000E+01  0.6000E+01
    -18.507  0.0000E+00  0.0000E+00  0.6000E+01  0.6000E+01
    -18.379  0.0000E+00  0.0000E+00  0.6000E+01  0.6000E+01
    -18.250  0.0000E+00  0.0000E+00  0.6000E+01  0.6000E+01
    -18.122  0.0000E+00  0.0000E+00  0.6000E+01  0.6000E+01
    -17.994  0.0000E+00  0.0000E+00  0.6000E+01  0.6000E+01
    -17.865  0.0000E+00  0.0000E+00  0.6000E+01  0.6000E+01
    -17.737  0.0000E+00  0.0000E+00  0.6000E+01  0.6000E+01
    -17.608  0.0000E+00  0.0000E+00  0.6000E+01  0.6000E+01
    -17.480  0.0000E+00  0.0000E+00  0.6000E+01  0.6000E+01
    -17.352  0.0000E+00  0.0000E+00  0.6000E+01  0.6000E+01
    -17.223  0.0000E+00  0.0000E+00  0.6000E+01  0.6000E+01
    -17.095  0.0000E+00  0.0000E+00  0.6000E+01  0.6000E+01
    -16.966  0.0000E+00  0.0000E+00  0.6000E+01  0.6000E+01
    -16.838  0.0000E+00  0.0000E+00  0.6000E+01  0.6000E+01
    -16.710  0.0000E+00  0.0000E+00  0.6000E+01  0.6000E+01
    -16.581  0.0000E+00  0.0000E+00  0.6000E+01  0.6000E+01
    -16.453  0.0000E+00  0.0000E+00  0.6000E+01  0.6000E+01
    -16.324  0.0000E+00  0.0000E+00  0.6000E+01  0.6000E+01
    -16.196  0.0000E+00  0.0000E+00  0.6000E+01  0.6000E+01
    -16.068  0.0000E+00  0.0000E+00  0.6000E+01  0.6000E+01
    -15.939  0.0000E+00  0.0000E+00  0.6000E+01  0.6000E+01
    -15.811  0.0000E+00  0.0000E+00  0.6000E+01  0.6000E+01
    -15.682  0.0000E+00  0.0000E+00  0.6000E+01  0.6000E+01
    -15.554  0.0000E+00  0.0000E+00  0.6000E+01  0.6000E+01
    -15.426  0.0000E+00  0.0000E+00  0.6000E+01  0.6000E+01
    -15.297  0.0000E+00  0.0000E+00  0.6000E+01  0.6000E+01
    -15.169  0.0000E+00  0.0000E+00  0.6000E+01  0.6000E+01
    -15.040  0.0000E+00  0.0000E+00  0.6000E+01  0.6000E+01
    -14.912  0.0000E+00  0.0000E+00  0.6000E+01  0.6000E+01
    -14.784  0.0000E+00  0.0000E+00  0.6000E+01  0.6000E+01
    -14.655  0.0000E+00  0.0000E+00  0.6000E+01  0.6000E+01
    -14.527  0.0000E+00  0.0000E+00  0.6000E+01  0.6000E+01
    -14.398  0.0000E+00  0.0000E+00  0.6000E+01  0.6000E+01
    -14.270  0.0000E+00  0.0000E+00  0.6000E+01  0.6000E+01
    -14.142  0.0000E+00  0.0000E+00  0.6000E+01  0.6000E+01
    -14.013  0.0000E+00  0.0000E+00  0.6000E+01  0.6000E+01
    -13.885  0.0000E+00  0.0000E+00  0.6000E+01  0.6000E+01
    -13.756  0.0000E+00  0.0000E+00  0.6000E+01  0.6000E+01
    -13.628  0.0000E+00  0.0000E+00  0.6000E+01  0.6000E+01
    -13.500  0.0000E+00  0.0000E+00  0.6000E+01  0.6000E+01
    -13.371  0.0000E+00  0.0000E+00  0.6000E+01  0.6000E+01
    -13.243  0.0000E+00  0.0000E+00  0.6000E+01  0.6000E+01
    -13.115  0.0000E+00  0.0000E+00  0.6000E+01  0.6000E+01
    -12.986  0.0000E+00  0.0000E+00  0.6000E+01  0.6000E+01
    -12.858  0.0000E+00  0.0000E+00  0.6000E+01  0.6000E+01
    -12.729  0.0000E+00  0.0000E+00  0.6000E+01  0.6000E+01
    -12.601  0.0000E+00  0.0000E+00  0.6000E+01  0.6000E+01
    -12.473  0.0000E+00  0.0000E+00  0.6000E+01  0.6000E+01
    -12.344  0.0000E+00  0.0000E+00  0.6000E+01  0.6000E+01
    -12.216  0.0000E+00  0.0000E+00  0.6000E+01  0.6000E+01
    -12.087  0.0000E+00  0.0000E+00  0.6000E+01  0.6000E+01
    -11.959  0.0000E+00  0.0000E+00  0.6000E+01  0.6000E+01
    -11.831  0.0000E+00  0.0000E+00  0.6000E+01  0.6000E+01
    -11.702  0.0000E+00  0.0000E+00  0.6000E+01  0.6000E+01
    -11.574  0.0000E+00  0.0000E+00  0.6000E+01  0.6000E+01
    -11.445  0.0000E+00  0.0000E+00  0.6000E+01  0.6000E+01
    -11.317  0.0000E+00  0.0000E+00  0.6000E+01  0.6000E+01
    -11.189  0.0000E+00  0.0000E+00  0.6000E+01  0.6000E+01
    -11.060  0.0000E+00  0.0000E+00  0.6000E+01  0.6000E+01
    -10.932  0.0000E+00  0.0000E+00  0.6000E+01  0.6000E+01
    -10.803  0.0000E+00  0.0000E+00  0.6000E+01  0.6000E+01
    -10.675  0.0000E+00  0.0000E+00  0.6000E+01  0.6000E+01
    -10.547  0.0000E+00  0.0000E+00  0.6000E+01  0.6000E+01
    -10.418  0.0000E+00  0.0000E+00  0.6000E+01  0.6000E+01
    -10.290  0.0000E+00  0.0000E+00  0.6000E+01  0.6000E+01
    -10.161  0.0000E+00  0.0000E+00  0.6000E+01  0.6000E+01
    -10.033  0.0000E+00  0.0000E+00  0.6000E+01  0.6000E+01
     -9.905  0.0000E+00  0.0000E+00  0.6000E+01  0.6000E+01
     -9.776  0.0000E+00  0.0000E+00  0.6000E+01  0.6000E+01
     -9.648  0.0000E+00  0.0000E+00  0.6000E+01  0.6000E+01
     -9.519  0.0000E+00  0.0000E+00  0.6000E+01  0.6000E+01
     -9.391  0.0000E+00  0.0000E+00  0.6000E+01  0.6000E+01
     -9.263  0.0000E+00  0.0000E+00  0.6000E+01  0.6000E+01
     -9.134  0.0000E+00  0.0000E+00  0.6000E+01  0.6000E+01
     -9.006  0.0000E+00  0.0000E+00  0.6000E+01  0.6000E+01
     -8.877  0.0000E+00  0.0000E+00  0.6000E+01  0.6000E+01
     -8.749  0.0000E+00  0.0000E+00  0.6000E+01  0.6000E+01
     -8.621  0.0000E+00  0.0000E+00  0.6000E+01  0.6000E+01
     -8.492  0.0000E+00  0.0000E+00  0.6000E+01  0.6000E+01
     -8.364  0.0000E+00  0.0000E+00  0.6000E+01  0.6000E+01
     -8.236  0.0000E+00  0.0000E+00  0.6000E+01  0.6000E+01
     -8.107  0.0000E+00  0.0000E+00  0.6000E+01  0.6000E+01
     -7.979  0.0000E+00  0.0000E+00  0.6000E+01  0.6000E+01
     -7.850  0.0000E+00  0.0000E+00  0.6000E+01  0.6000E+01
     -7.722  0.0000E+00  0.0000E+00  0.6000E+01  0.6000E+01
     -7.594  0.0000E+00  0.0000E+00  0.6000E+01  0.6000E+01
     -7.465  0.0000E+00  0.0000E+00  0.6000E+01  0.6000E+01
     -7.337  0.0000E+00  0.0000E+00  0.6000E+01  0.6000E+01
     -7.208  0.0000E+00  0.0000E+00  0.6000E+01  0.6000E+01
     -7.080  0.0000E+00  0.0000E+00  0.6000E+01  0.6000E+01
     -6.952  0.0000E+00  0.0000E+00  0.6000E+01  0.6000E+01
     -6.823  0.0000E+00  0.0000E+00  0.6000E+01  0.6000E+01
     -6.695  0.0000E+00  0.0000E+00  0.6000E+01  0.6000E+01
     -6.566  0.0000E+00  0.0000E+00  0.6000E+01  0.6000E+01
     -6.438  0.0000E+00  0.0000E+00  0.6000E+01  0.6000E+01
     -6.310  0.0000E+00  0.0000E+00  0.6000E+01  0.6000E+01
     -6.181  0.0000E+00  0.0000E+00  0.6000E+01  0.6000E+01
     -6.053  0.0000E+00  0.0000E+00  0.6000E+01  0.6000E+01
     -5.924  0.0000E+00  0.0000E+00  0.6000E+01  0.6000E+01
     -5.796  0.0000E+00  0.0000E+00  0.6000E+01  0.6000E+01
     -5.668  0.0000E+00  0.0000E+00  0.6000E+01  0.6000E+01
     -5.539  0.0000E+00  0.0000E+00  0.6000E+01  0.6000E+01
     -5.411  0.0000E+00  0.0000E+00  0.6000E+01  0.6000E+01
     -5.282  0.0000E+00  0.0000E+00  0.6000E+01  0.6000E+01
     -5.154  0.0000E+00  0.0000E+00  0.6000E+01  0.6000E+01
     -5.026  0.0000E+00  0.0000E+00  0.6000E+01  0.6000E+01
     -4.897  0.0000E+00  0.0000E+00  0.6000E+01  0.6000E+01
     -4.769  0.0000E+00  0.0000E+00  0.6000E+01  0.6000E+01
     -4.640  0.0000E+00  0.0000E+00  0.6000E+01  0.6000E+01
     -4.512  0.0000E+00  0.0000E+00  0.6000E+01  0.6000E+01
     -4.384  0.0000E+00  0.0000E+00  0.6000E+01  0.6000E+01
     -4.255  0.0000E+00  0.0000E+00  0.6000E+01  0.6000E+01
     -4.127  0.1034E-04  0.1043E-04  0.6000E+01  0.6000E+01
     -3.998  0.1474E-03  0.1486E-03  0.6000E+01  0.6000E+01
     -3.870  0.1900E-02  0.1915E-02  0.6000E+01  0.6000E+01
     -3.742  0.2054E-01  0.2069E-01  0.6003E+01  0.6003E+01
     -3.613  0.1042E+00  0.1046E+00  0.6016E+01  0.6016E+01
     -3.485  0.2158E+00  0.2162E+00  0.6044E+01  0.6044E+01
     -3.356  0.2873E+00  0.2875E+00  0.6081E+01  0.6081E+01
     -3.228  0.3660E+00  0.3663E+00  0.6128E+01  0.6128E+01
     -3.100  0.4141E+00  0.4143E+00  0.6181E+01  0.6181E+01
     -2.971  0.4401E+00  0.4402E+00  0.6238E+01  0.6238E+01
     -2.843  0.5374E+00  0.5377E+00  0.6307E+01  0.6307E+01
     -2.715  0.5486E+00  0.5485E+00  0.6377E+01  0.6377E+01
     -2.586  0.5598E+00  0.5601E+00  0.6449E+01  0.6449E+01
     -2.458  0.6728E+00  0.6730E+00  0.6536E+01  0.6536E+01
     -2.329  0.6689E+00  0.6689E+00  0.6622E+01  0.6622E+01
     -2.201  0.7147E+00  0.7150E+00  0.6714E+01  0.6714E+01
     -2.073  0.7428E+00  0.7427E+00  0.6809E+01  0.6810E+01
     -1.944  0.7791E+00  0.7796E+00  0.6909E+01  0.6910E+01
     -1.816  0.9219E+00  0.9221E+00  0.7028E+01  0.7028E+01
     -1.687  0.8433E+00  0.8430E+00  0.7136E+01  0.7137E+01
     -1.559  0.8866E+00  0.8872E+00  0.7250E+01  0.7251E+01
     -1.431  0.9880E+00  0.9883E+00  0.7377E+01  0.7378E+01
     -1.302  0.1033E+01  0.1033E+01  0.7510E+01  0.7511E+01
     -1.174  0.1030E+01  0.1030E+01  0.7643E+01  0.7643E+01
     -1.045  0.1033E+01  0.1032E+01  0.7775E+01  0.7776E+01
     -0.917  0.1101E+01  0.1101E+01  0.7917E+01  0.7917E+01
     -0.789  0.1160E+01  0.1160E+01  0.8066E+01  0.8067E+01
     -0.660  0.1187E+01  0.1187E+01  0.8219E+01  0.8219E+01
     -0.532  0.1292E+01  0.1292E+01  0.8385E+01  0.8385E+01
     -0.403  0.1275E+01  0.1274E+01  0.8549E+01  0.8549E+01
     -0.275  0.1124E+01  0.1124E+01  0.8693E+01  0.8694E+01
     -0.147  0.1103E+01  0.1102E+01  0.8835E+01  0.8835E+01
     -0.018  0.1030E+01  0.1030E+01  0.8968E+01  0.8968E+01
      0.110  0.1231E+01  0.1231E+01  0.9126E+01  0.9126E+01
      0.239  0.1329E+01  0.1329E+01  0.9297E+01  0.9297E+01
      0.367  0.1557E+01  0.1558E+01  0.9497E+01  0.9497E+01
      0.495  0.1603E+01  0.1602E+01  0.9703E+01  0.9703E+01
      0.624  0.1504E+01  0.1503E+01  0.9896E+01  0.9897E+01
      0.752  0.1419E+01  0.1420E+01  0.1008E+02  0.1008E+02
      0.881  0.1477E+01  0.1478E+01  0.1027E+02  0.1027E+02
      1.009  0.1567E+01  0.1567E+01  0.1047E+02  0.1047E+02
      1.137  0.1473E+01  0.1472E+01  0.1066E+02  0.1066E+02
      1.266  0.1246E+01  0.1246E+01  0.1082E+02  0.1082E+02
      1.394  0.9440E+00  0.9434E+00  0.1094E+02  0.1094E+02
      1.523  0.1295E+01  0.1297E+01  0.1111E+02  0.1111E+02
      1.651  0.1950E+01  0.1950E+01  0.1136E+02  0.1136E+02
      1.779  0.1308E+01  0.1306E+01  0.1153E+02  0.1153E+02
      1.908  0.1061E+01  0.1061E+01  0.1166E+02  0.1166E+02
      2.036  0.1426E+01  0.1427E+01  0.1185E+02  0.1185E+02
      2.164  0.1539E+01  0.1539E+01  0.1204E+02  0.1205E+02
      2.293  0.1629E+01  0.1630E+01  0.1225E+02  0.1225E+02
      2.421  0.1656E+01  0.1657E+01  0.1247E+02  0.1247E+02
      2.550  0.1918E+01  0.1920E+01  0.1271E+02  0.1271E+02
      2.678  0.2158E+01  0.2157E+01  0.1299E+02  0.1299E+02
      2.806  0.2077E+01  0.2076E+01  0.1326E+02  0.1326E+02
      2.935  0.1802E+01  0.1800E+01  0.1349E+02  0.1349E+02
      3.063  0.1703E+01  0.1703E+01  0.1371E+02  0.1371E+02
      3.192  0.1870E+01  0.1870E+01  0.1395E+02  0.1395E+02
      3.320  0.2149E+01  0.2149E+01  0.1423E+02  0.1423E+02
      3.448  0.2326E+01  0.2326E+01  0.1452E+02  0.1453E+02
      3.577  0.2733E+01  0.2734E+01  0.1488E+02  0.1488E+02
      3.705  0.3630E+01  0.3630E+01  0.1534E+02  0.1534E+02
      3.834  0.3151E+01  0.3148E+01  0.1575E+02  0.1575E+02
      3.962  0.2327E+01  0.2326E+01  0.1605E+02  0.1605E+02
      4.090  0.2189E+01  0.2188E+01  0.1633E+02  0.1633E+02
      4.219  0.2409E+01  0.2408E+01  0.1664E+02  0.1664E+02
      4.347  0.2468E+01  0.2467E+01  0.1696E+02  0.1696E+02
      4.476  0.2749E+01  0.2747E+01  0.1731E+02  0.1731E+02
      4.604  0.2876E+01  0.2874E+01  0.1768E+02  0.1768E+02
      4.732  0.3389E+01  0.3386E+01  0.1811E+02  0.1811E+02
      4.861  0.3231E+01  0.3232E+01  0.1853E+02  0.1853E+02
      4.989  0.2607E+01  0.2607E+01  0.1887E+02  0.1886E+02
      5.118  0.2214E+01  0.2216E+01  0.1915E+02  0.1915E+02
      5.246  0.1724E+01  0.1725E+01  0.1937E+02  0.1937E+02
      5.374  0.1637E+01  0.1638E+01  0.1958E+02  0.1958E+02
      5.503  0.1502E+01  0.1504E+01  0.1978E+02  0.1978E+02
      5.631  0.1436E+01  0.1437E+01  0.1996E+02  0.1996E+02
      5.760  0.1765E+01  0.1765E+01  0.2019E+02  0.2019E+02
      5.888  0.2289E+01  0.2289E+01  0.2048E+02  0.2048E+02
      6.016  0.2424E+01  0.2427E+01  0.2079E+02  0.2079E+02
      6.145  0.2423E+01  0.2425E+01  0.2111E+02  0.2111E+02
      6.273  0.2389E+01  0.2389E+01  0.2141E+02  0.2141E+02
      6.402  0.2756E+01  0.2755E+01  0.2177E+02  0.2177E+02
      6.530  0.3482E+01  0.3481E+01  0.2221E+02  0.2221E+02
      6.658  0.3690E+01  0.3689E+01  0.2269E+02  0.2269E+02
      6.787  0.4003E+01  0.4002E+01  0.2320E+02  0.2320E+02
      6.915  0.4065E+01  0.4066E+01  0.2373E+02  0.2373E+02
      7.044  0.3704E+01  0.3704E+01  0.2420E+02  0.2420E+02
      7.172  0.4226E+01  0.4226E+01  0.2475E+02  0.2475E+02
      7.300  0.4642E+01  0.4645E+01  0.2534E+02  0.2534E+02
      7.429  0.3649E+01  0.3652E+01  0.2581E+02  0.2581E+02
      7.557  0.2603E+01  0.2615E+01  0.2615E+02  0.2615E+02
      7.685  0.2214E+01  0.2295E+01  0.2643E+02  0.2644E+02
      7.814  0.2555E+01  0.2639E+01  0.2676E+02  0.2678E+02
      7.942  0.2562E+01  0.2546E+01  0.2709E+02  0.2711E+02
      8.071  0.2221E+01  0.2214E+01  0.2738E+02  0.2740E+02
      8.199  0.1775E+01  0.1784E+01  0.2760E+02  0.2763E+02
      8.327  0.1477E+01  0.1396E+01  0.2779E+02  0.2781E+02
      8.456  0.9647E+00  0.9029E+00  0.2792E+02  0.2792E+02
      8.584  0.3288E+00  0.3460E+00  0.2796E+02  0.2797E+02
      8.713  0.1119E+00  0.1271E+00  0.2798E+02  0.2798E+02
      8.841  0.1356E+00  0.7994E-01  0.2799E+02  0.2799E+02
      8.969  0.4813E-01  0.4298E-01  0.2800E+02  0.2800E+02
      9.098  0.4740E-02  0.8985E-02  0.2800E+02  0.2800E+02
      9.226  0.0000E+00  0.7162E-03  0.2800E+02  0.2800E+02
      9.355  0.0000E+00  0.0000E+00  0.2800E+02  0.2800E+02
      9.483  0.0000E+00  0.0000E+00  0.2800E+02  0.2800E+02
      9.611  0.0000E+00  0.0000E+00  0.2800E+02  0.2800E+02
      9.740  0.0000E+00  0.0000E+00  0.2800E+02  0.2800E+02
      9.868  0.0000E+00  0.0000E+00  0.2800E+02  0.2800E+02
      9.997  0.0000E+00  0.0000E+00  0.2800E+02  0.2800E+02
     10.125  0.0000E+00  0.0000E+00  0.2800E+02  0.2800E+02
     10.253  0.0000E+00  0.0000E+00  0.2800E+02  0.2800E+02
     10.382  0.0000E+00  0.0000E+00  0.2800E+02  0.2800E+02
     10.510  0.0000E+00  0.0000E+00  0.2800E+02  0.2800E+02
     10.639  0.0000E+00  0.0000E+00  0.2800E+02  0.2800E+02
     10.63856537    -27.87993707  301      5.04503097      1.00000000
    -27.880  0.0000E+00  0.0000E+00  0.0000E+00  0.0000E+00  0.0000E+00  0.0000E+00  0.0000E+00  0.0000E+00  0.0000E+00  0.0000E+00  0.0000E+00  0.0000E+00  0.0000E+00  0.0000E+00  0.0000E+00  0.0000E+00  0.0000E+00  0.0000E+00
    -27.752  0.0000E+00  0.0000E+00  0.0000E+00  0.0000E+00  0.0000E+00  0.0000E+00  0.0000E+00  0.0000E+00  0.0000E+00  0.0000E+00  0.0000E+00  0.0000E+00  0.0000E+00  0.0000E+00  0.0000E+00  0.0000E+00  0.0000E+00  0.0000E+00
    -27.623  0.0000E+00  0.0000E+00  0.0000E+00  0.0000E+00  0.0000E+00  0.0000E+00  0.0000E+00  0.0000E+00  0.0000E+00  0.0000E+00  0.0000E+00  0.0000E+00  0.0000E+00  0.0000E+00  0.0000E+00  0.0000E+00  0.0000E+00  0.0000E+00
    -27.495  0.0000E+00  0.0000E+00  0.0000E+00  0.0000E+00  0.0000E+00  0.0000E+00  0.0000E+00  0.0000E+00  0.0000E+00  0.0000E+00  0.0000E+00  0.0000E+00  0.0000E+00  0.0000E+00  0.0000E+00  0.0000E+00  0.0000E+00  0.0000E+00
    -27.366  0.0000E+00  0.0000E+00  0.0000E+00  0.0000E+00  0.0000E+00  0.0000E+00  0.0000E+00  0.0000E+00  0.0000E+00  0.0000E+00  0.0000E+00  0.0000E+00  0.0000E+00  0.0000E+00  0.0000E+00  0.0000E+00  0.0000E+00  0.0000E+00
    -27.238  0.0000E+00  0.0000E+00  0.0000E+00  0.0000E+00  0.0000E+00  0.0000E+00  0.0000E+00  0.0000E+00  0.0000E+00  0.0000E+00  0.0000E+00  0.0000E+00  0.0000E+00  0.0000E+00  0.0000E+00  0.0000E+00  0.0000E+00  0.0000E+00
    -27.110  0.0000E+00  0.0000E+00  0.0000E+00  0.0000E+00  0.0000E+00  0.0000E+00  0.0000E+00  0.0000E+00  0.0000E+00  0.0000E+00  0.0000E+00  0.0000E+00  0.0000E+00  0.0000E+00  0.0000E+00  0.0000E+00  0.0000E+00  0.0000E+00
    -26.981  0.0000E+00  0.0000E+00  0.0000E+00  0.0000E+00  0.0000E+00  0.0000E+00  0.0000E+00  0.0000E+00  0.0000E+00  0.0000E+00  0.0000E+00  0.0000E+00  0.0000E+00  0.0000E+00  0.0000E+00  0.0000E+00  0.0000E+00  0.0000E+00
    -26.853  0.0000E+00  0.0000E+00  0.0000E+00  0.0000E+00  0.0000E+00  0.0000E+00  0.0000E+00  0.0000E+00  0.0000E+00  0.0000E+00  0.0000E+00  0.0000E+00  0.0000E+00  0.0000E+00  0.0000E+00  0.0000E+00  0.0000E+00  0.0000E+00
    -26.724  0.0000E+00  0.0000E+00  0.0000E+00  0.0000E+00  0.0000E+00  0.0000E+00  0.0000E+00  0.0000E+00  0.0000E+00  0.0000E+00  0.0000E+00  0.0000E+00  0.0000E+00  0.0000E+00  0.0000E+00  0.0000E+00  0.0000E+00  0.0000E+00
    -26.596  0.4409E-10  0.4418E-10  0.6001E-03  0.6018E-03  0.3209E-08  0.3192E-08  0.6001E-03  0.6018E-03  0.1923E-11  0.1913E-11  0.8685E-13  0.8382E-13  0.1692E-10  0.1696E-10  0.8685E-13  0.8382E-13  0.5014E-10  0.5026E-10
    -26.468  0.5306E-09  0.5317E-09  0.7216E-02  0.7237E-02  0.6102E-03  0.6057E-03  0.7216E-02  0.7237E-02  0.2317E-10  0.2304E-10  0.2198E-11  0.2135E-11  0.2035E-09  0.2040E-09  0.2198E-11  0.2135E-11  0.6030E-09  0.6044E-09
    -26.339  0.6827E-08  0.6841E-08  0.9285E-01  0.9312E-01  0.7339E-02  0.7285E-02  0.9285E-01  0.9312E-01  0.2980E-09  0.2964E-09  0.2730E-10  0.2652E-10  0.2619E-08  0.2625E-08  0.2730E-10  0.2652E-10  0.7760E-08  0.7777E-08
    -26.211  0.7588E-07  0.7599E-07  0.1032E+01  0.1034E+01  0.9441E-01  0.9372E-01  0.1032E+01  0.1034E+01  0.3302E-08  0.3283E-08  0.3270E-09  0.3177E-09  0.2911E-07  0.2916E-07  0.3270E-09  0.3177E-09  0.8626E-07  0.8642E-07
    -26.082  0.3070E-06  0.3068E-06  0.4167E+01  0.4169E+01  0.1047E+01  0.1040E+01  0.4167E+01  0.4169E+01  0.1321E-07  0.1310E-07  0.2564E-08  0.2500E-08  0.1177E-06  0.1177E-06  0.2564E-08  0.2500E-08  0.3491E-06  0.3491E-06
    -25.954  0.1562E-06  0.1558E-06  0.2093E+01  0.2089E+01  0.4181E+01  0.4177E+01  0.2093E+01  0.2089E+01  0.6785E-08  0.6699E-08  0.8163E-08  0.8022E-08  0.5955E-07  0.5938E-07  0.8163E-08  0.8022E-08  0.1754E-06  0.1749E-06
    -25.826  0.1825E-07  0.1820E-07  0.2313E+00  0.2307E+00  0.2064E+01  0.2074E+01  0.2313E+00  0.2307E+00  0.8574E-09  0.8406E-09  0.3906E-08  0.3864E-08  0.6808E-08  0.6772E-08  0.3906E-08  0.3864E-08  0.1937E-07  0.1931E-07
    -25.697  0.1417E-09  0.1437E-09  0.5963E-06  0.5959E-06  0.2263E+00  0.2279E+00  0.5963E-06  0.5959E-06  0.1579E-10  0.1487E-10  0.4243E-09  0.4208E-09  0.3323E-10  0.3165E-10  0.4243E-09  0.4208E-09  0.1295E-12  0.1537E-12
    -25.569  0.0000E+00  0.0000E+00  0.0000E+00  0.0000E+00  0.0000E+00  0.0000E+00  0.0000E+00  0.0000E+00  0.0000E+00  0.0000E+00  0.0000E+00  0.0000E+00  0.0000E+00  0.0000E+00  0.0000E+00  0.0000E+00  0.0000E+00  0.0000E+00
    -25.440  0.0000E+00  0.0000E+00  0.0000E+00  0.0000E+00  0.0000E+00  0.0000E+00  0.0000E+00  0.0000E+00  0.0000E+00  0.0000E+00  0.0000E+00  0.0000E+00  0.0000E+00  0.0000E+00  0.0000E+00  0.0000E+00  0.0000E+00  0.0000E+00
    -25.312  0.0000E+00  0.0000E+00  0.0000E+00  0.0000E+00  0.0000E+00  0.0000E+00  0.0000E+00  0.0000E+00  0.0000E+00  0.0000E+00  0.0000E+00  0.0000E+00  0.0000E+00  0.0000E+00  0.0000E+00  0.0000E+00  0.0000E+00  0.0000E+00
    -25.184  0.0000E+00  0.0000E+00  0.0000E+00  0.0000E+00  0.0000E+00  0.0000E+00  0.0000E+00  0.0000E+00  0.0000E+00  0.0000E+00  0.0000E+00  0.0000E+00  0.0000E+00  0.0000E+00  0.0000E+00  0.0000E+00  0.0000E+00  0.0000E+00
    -25.055  0.0000E+00  0.0000E+00  0.0000E+00  0.0000E+00  0.0000E+00  0.0000E+00  0.0000E+00  0.0000E+00  0.0000E+00  0.0000E+00  0.0000E+00  0.0000E+00  0.0000E+00  0.0000E+00  0.0000E+00  0.0000E+00  0.0000E+00  0.0000E+00
    -24.927  0.0000E+00  0.0000E+00  0.0000E+00  0.0000E+00  0.0000E+00  0.0000E+00  0.0000E+00  0.0000E+00  0.0000E+00  0.0000E+00  0.0000E+00  0.0000E+00  0.0000E+00  0.0000E+00  0.0000E+00  0.0000E+00  0.0000E+00  0.0000E+00
    -24.798  0.0000E+00  0.0000E+00  0.0000E+00  0.0000E+00  0.0000E+00  0.0000E+00  0.0000E+00  0.0000E+00  0.0000E+00  0.0000E+00  0.0000E+00  0.0000E+00  0.0000E+00  0.0000E+00  0.0000E+00  0.0000E+00  0.0000E+00  0.0000E+00
    -24.670  0.0000E+00  0.0000E+00  0.0000E+00  0.0000E+00  0.0000E+00  0.0000E+00  0.0000E+00  0.0000E+00  0.0000E+00  0.0000E+00  0.0000E+00  0.0000E+00  0.0000E+00  0.0000E+00  0.0000E+00  0.0000E+00  0.0000E+00  0.0000E+00
    -24.542  0.0000E+00  0.0000E+00  0.0000E+00  0.0000E+00  0.0000E+00  0.0000E+00  0.0000E+00  0.0000E+00  0.0000E+00  0.0000E+00  0.0000E+00  0.0000E+00  0.0000E+00  0.0000E+00  0.0000E+00  0.0000E+00  0.0000E+00  0.0000E+00
    -24.413  0.0000E+00  0.0000E+00  0.0000E+00  0.0000E+00  0.0000E+00  0.0000E+00  0.0000E+00  0.0000E+00  0.0000E+00  0.0000E+00  0.0000E+00  0.0000E+00  0.0000E+00  0.0000E+00  0.0000E+00  0.0000E+00  0.0000E+00  0.0000E+00
    -24.285  0.0000E+00  0.0000E+00  0.0000E+00  0.0000E+00  0.0000E+00  0.0000E+00  0.0000E+00  0.0000E+00  0.0000E+00  0.0000E+00  0.0000E+00  0.0000E+00  0.0000E+00  0.0000E+00  0.0000E+00  0.0000E+00  0.0000E+00  0.0000E+00
    -24.156  0.0000E+00  0.0000E+00  0.0000E+00  0.0000E+00  0.0000E+00  0.0000E+00  0.0000E+00  0.0000E+00  0.0000E+00  0.0000E+00  0.0000E+00  0.0000E+00  0.0000E+00  0.0000E+00  0.0000E+00  0.0000E+00  0.0000E+00  0.0000E+00
    -24.028  0.0000E+00  0.0000E+00  0.0000E+00  0.0000E+00  0.0000E+00  0.0000E+00  0.0000E+00  0.0000E+00  0.0000E+00  0.0000E+00  0.0000E+00  0.0000E+00  0.0000E+00  0.0000E+00  0.0000E+00  0.0000E+00  0.0000E+00  0.0000E+00
    -23.900  0.0000E+00  0.0000E+00  0.0000E+00  0.0000E+00  0.0000E+00  0.0000E+00  0.0000E+00  0.0000E+00  0.0000E+00  0.0000E+00  0.0000E+00  0.0000E+00  0.0000E+00  0.0000E+00  0.0000E+00  0.0000E+00  0.0000E+00  0.0000E+00
    -23.771  0.0000E+00  0.0000E+00  0.0000E+00  0.0000E+00  0.0000E+00  0.0000E+00  0.0000E+00  0.0000E+00  0.0000E+00  0.0000E+00  0.0000E+00  0.0000E+00  0.0000E+00  0.0000E+00  0.0000E+00  0.0000E+00  0.0000E+00  0.0000E+00
    -23.643  0.0000E+00  0.0000E+00  0.0000E+00  0.0000E+00  0.0000E+00  0.0000E+00  0.0000E+00  0.0000E+00  0.0000E+00  0.0000E+00  0.0000E+00  0.0000E+00  0.0000E+00  0.0000E+00  0.0000E+00  0.0000E+00  0.0000E+00  0.0000E+00
    -23.515  0.0000E+00  0.0000E+00  0.0000E+00  0.0000E+00  0.0000E+00  0.0000E+00  0.0000E+00  0.0000E+00  0.0000E+00  0.0000E+00  0.0000E+00  0.0000E+00  0.0000E+00  0.0000E+00  0.0000E+00  0.0000E+00  0.0000E+00  0.0000E+00
    -23.386  0.0000E+00  0.0000E+00  0.0000E+00  0.0000E+00  0.0000E+00  0.0000E+00  0.0000E+00  0.0000E+00  0.0000E+00  0.0000E+00  0.0000E+00  0.0000E+00  0.0000E+00  0.0000E+00  0.0000E+00  0.0000E+00  0.0000E+00  0.0000E+00
    -23.258  0.0000E+00  0.0000E+00  0.0000E+00  0.0000E+00  0.0000E+00  0.0000E+00  0.0000E+00  0.0000E+00  0.0000E+00  0.0000E+00  0.0000E+00  0.0000E+00  0.0000E+00  0.0000E+00  0.0000E+00  0.0000E+00  0.0000E+00  0.0000E+00
    -23.129  0.0000E+00  0.0000E+00  0.0000E+00  0.0000E+00  0.0000E+00  0.0000E+00  0.0000E+00  0.0000E+00  0.0000E+00  0.0000E+00  0.0000E+00  0.0000E+00  0.0000E+00  0.0000E+00  0.0000E+00  0.0000E+00  0.0000E+00  0.0000E+00
    -23.001  0.0000E+00  0.0000E+00  0.0000E+00  0.0000E+00  0.0000E+00  0.0000E+00  0.0000E+00  0.0000E+00  0.0000E+00  0.0000E+00  0.0000E+00  0.0000E+00  0.0000E+00  0.0000E+00  0.0000E+00  0.0000E+00  0.0000E+00  0.0000E+00
    -22.873  0.0000E+00  0.0000E+00  0.0000E+00  0.0000E+00  0.0000E+00  0.0000E+00  0.0000E+00  0.0000E+00  0.0000E+00  0.0000E+00  0.0000E+00  0.0000E+00  0.0000E+00  0.0000E+00  0.0000E+00  0.0000E+00  0.0000E+00  0.0000E+00
    -22.744  0.0000E+00  0.0000E+00  0.0000E+00  0.0000E+00  0.0000E+00  0.0000E+00  0.0000E+00  0.0000E+00  0.0000E+00  0.0000E+00  0.0000E+00  0.0000E+00  0.0000E+00  0.0000E+00  0.0000E+00  0.0000E+00  0.0000E+00  0.0000E+00
    -22.616  0.0000E+00  0.0000E+00  0.0000E+00  0.0000E+00  0.0000E+00  0.0000E+00  0.0000E+00  0.0000E+00  0.0000E+00  0.0000E+00  0.0000E+00  0.0000E+00  0.0000E+00  0.0000E+00  0.0000E+00  0.0000E+00  0.0000E+00  0.0000E+00
    -22.487  0.0000E+00  0.0000E+00  0.0000E+00  0.0000E+00  0.0000E+00  0.0000E+00  0.0000E+00  0.0000E+00  0.0000E+00  0.0000E+00  0.0000E+00  0.0000E+00  0.0000E+00  0.0000E+00  0.0000E+00  0.0000E+00  0.0000E+00  0.0000E+00
    -22.359  0.0000E+00  0.0000E+00  0.0000E+00  0.0000E+00  0.0000E+00  0.0000E+00  0.0000E+00  0.0000E+00  0.0000E+00  0.0000E+00  0.0000E+00  0.0000E+00  0.0000E+00  0.0000E+00  0.0000E+00  0.0000E+00  0.0000E+00  0.0000E+00
    -22.231  0.0000E+00  0.0000E+00  0.0000E+00  0.0000E+00  0.0000E+00  0.0000E+00  0.0000E+00  0.0000E+00  0.0000E+00  0.0000E+00  0.0000E+00  0.0000E+00  0.0000E+00  0.0000E+00  0.0000E+00  0.0000E+00  0.0000E+00  0.0000E+00
    -22.102  0.0000E+00  0.0000E+00  0.0000E+00  0.0000E+00  0.0000E+00  0.0000E+00  0.0000E+00  0.0000E+00  0.0000E+00  0.0000E+00  0.0000E+00  0.0000E+00  0.0000E+00  0.0000E+00  0.0000E+00  0.0000E+00  0.0000E+00  0.0000E+00
    -21.974  0.0000E+00  0.0000E+00  0.0000E+00  0.0000E+00  0.0000E+00  0.0000E+00  0.0000E+00  0.0000E+00  0.0000E+00  0.0000E+00  0.0000E+00  0.0000E+00  0.0000E+00  0.0000E+00  0.0000E+00  0.0000E+00  0.0000E+00  0.0000E+00
    -21.845  0.0000E+00  0.0000E+00  0.0000E+00  0.0000E+00  0.0000E+00  0.0000E+00  0.0000E+00  0.0000E+00  0.0000E+00  0.0000E+00  0.0000E+00  0.0000E+00  0.0000E+00  0.0000E+00  0.0000E+00  0.0000E+00  0.0000E+00  0.0000E+00
    -21.717  0.0000E+00  0.0000E+00  0.0000E+00  0.0000E+00  0.0000E+00  0.0000E+00  0.0000E+00  0.0000E+00  0.0000E+00  0.0000E+00  0.0000E+00  0.0000E+00  0.0000E+00  0.0000E+00  0.0000E+00  0.0000E+00  0.0000E+00  0.0000E+00
    -21.589  0.0000E+00  0.0000E+00  0.0000E+00  0.0000E+00  0.0000E+00  0.0000E+00  0.0000E+00  0.0000E+00  0.0000E+00  0.0000E+00  0.0000E+00  0.0000E+00  0.0000E+00  0.0000E+00  0.0000E+00  0.0000E+00  0.0000E+00  0.0000E+00
    -21.460  0.0000E+00  0.0000E+00  0.0000E+00  0.0000E+00  0.0000E+00  0.0000E+00  0.0000E+00  0.0000E+00  0.0000E+00  0.0000E+00  0.0000E+00  0.0000E+00  0.0000E+00  0.0000E+00  0.0000E+00  0.0000E+00  0.0000E+00  0.0000E+00