   8   8   1   0
  0.2019740E+02  0.4323000E-09  0.4323000E-09  0.8645999E-09  0.5000000E-15
  1.000000000000000E-004
  CAR 
 unknown system                          
     11.77254705    -26.94986561  301      5.69710381      1.00000000
    -26.950  0.0000E+00  0.0000E+00  0.0000E+00  0.0000E+00
    -26.821  0.0000E+00  0.0000E+00  0.0000E+00  0.0000E+00
    -26.692  0.0000E+00  0.0000E+00  0.0000E+00  0.0000E+00
    -26.563  0.0000E+00  0.0000E+00  0.0000E+00  0.0000E+00
    -26.434  0.0000E+00  0.0000E+00  0.0000E+00  0.0000E+00
    -26.304  0.0000E+00  0.0000E+00  0.0000E+00  0.0000E+00
    -26.175  0.0000E+00  0.0000E+00  0.0000E+00  0.0000E+00
    -26.046  0.0000E+00  0.0000E+00  0.0000E+00  0.0000E+00
    -25.917  0.0000E+00  0.0000E+00  0.0000E+00  0.0000E+00
    -25.788  0.0000E+00  0.0000E+00  0.0000E+00  0.0000E+00
    -25.659  0.2188E-02  0.2182E-02  0.2824E-03  0.2817E-03
    -25.530  0.2780E-01  0.2772E-01  0.3871E-02  0.3860E-02
    -25.401  0.3620E+00  0.3610E+00  0.5059E-01  0.5046E-01
    -25.272  0.4134E+01  0.4124E+01  0.5842E+00  0.5827E+00
    -25.143  0.1876E+02  0.1873E+02  0.3005E+01  0.3000E+01
    -25.014  0.1724E+02  0.1723E+02  0.5231E+01  0.5225E+01
    -24.885  0.5355E+01  0.5391E+01  0.5922E+01  0.5921E+01
    -24.756  0.4825E+00  0.4882E+00  0.5995E+01  0.5995E+01
    -24.627  0.0000E+00  0.0000E+00  0.6000E+01  0.6000E+01
    -24.497  0.0000E+00  0.0000E+00  0.6000E+01  0.6000E+01
    -24.368  0.0000E+00  0.0000E+00  0.6000E+01  0.6000E+01
    -24.239  0.0000E+00  0.0000E+00  0.6000E+01  0.6000E+01
    -24.110  0.0000E+00  0.0000E+00  0.6000E+01  0.6000E+01
    -23.981  0.0000E+00  0.0000E+00  0.6000E+01  0.6000E+01
    -23.852  0.0000E+00  0.0000E+00  0.6000E+01  0.6000E+01
    -23.723  0.0000E+00  0.0000E+00  0.6000E+01  0.6000E+01
    -23.594  0.0000E+00  0.0000E+00  0.6000E+01  0.6000E+01
    -23.465  0.0000E+00  0.0000E+00  0.6000E+01  0.6000E+01
    -23.336  0.0000E+00  0.0000E+00  0.6000E+01  0.6000E+01
    -23.207  0.0000E+00  0.0000E+00  0.6000E+01  0.6000E+01
    -23.078  0.0000E+00  0.0000E+00  0.6000E+01  0.6000E+01
    -22.949  0.0000E+00  0.0000E+00  0.6000E+01  0.6000E+01
    -22.819  0.0000E+00  0.0000E+00  0.6000E+01  0.6000E+01
    -22.690  0.0000E+00  0.0000E+00  0.6000E+01  0.6000E+01
    -22.561  0.0000E+00  0.0000E+00  0.6000E+01  0.6000E+01
    -22.432  0.0000E+00  0.0000E+00  0.6000E+01  0.6000E+01
    -22.303  0.0000E+00  0.0000E+00  0.6000E+01  0.6000E+01
    -22.174  0.0000E+00  0.0000E+00  0.6000E+01  0.6000E+01
    -22.045  0.0000E+00  0.0000E+00  0.6000E+01  0.6000E+01
    -21.916  0.0000E+00  0.0000E+00  0.6000E+01  0.6000E+01
    -21.787  0.0000E+00  0.0000E+00  0.6000E+01  0.6000E+01
    -21.658  0.0000E+00  0.0000E+00  0.6000E+01  0.6000E+01
    -21.529  0.0000E+00  0.0000E+00  0.6000E+01  0.6000E+01
    -21.400  0.0000E+00  0.0000E+00  0.6000E+01  0.6000E+01
    -21.271  0.0000E+00  0.0000E+00  0.6000E+01  0.6000E+01
    -21.142  0.0000E+00  0.0000E+00  0.6000E+01  0.6000E+01
    -21.012  0.0000E+00  0.0000E+00  0.6000E+01  0.6000E+01
    -20.883  0.0000E+00  0.0000E+00  0.6000E+01  0.6000E+01
    -20.754  0.0000E+00  0.0000E+00  0.6000E+01  0.6000E+01
    -20.625  0.0000E+00  0.0000E+00  0.6000E+01  0.6000E+01
    -20.496  0.0000E+00  0.0000E+00  0.6000E+01  0.6000E+01
    -20.367  0.0000E+00  0.0000E+00  0.6000E+01  0.6000E+01
    -20.238  0.0000E+00  0.0000E+00  0.6000E+01  0.6000E+01
    -20.109  0.0000E+00  0.0000E+00  0.6000E+01  0.6000E+01
    -19.980  0.0000E+00  0.0000E+00  0.6000E+01  0.6000E+01
    -19.851  0.0000E+00  0.0000E+00  0.6000E+01  0.6000E+01
    -19.722  0.0000E+00  0.0000E+00  0.6000E+01  0.6000E+01
    -19.593  0.0000E+00  0.0000E+00  0.6000E+01  0.6000E+01
    -19.464  0.0000E+00  0.0000E+00  0.6000E+01  0.6000E+01
    -19.334  0.0000E+00  0.0000E+00  0.6000E+01  0.6000E+01
    -19.205  0.0000E+00  0.0000E+00  0.6000E+01  0.6000E+01
    -19.076  0.0000E+00  0.0000E+00  0.6000E+01  0.6000E+01
    -18.947  0.0000E+00  0.0000E+00  0.6000E+01  0.6000E+01
    -18.818  0.0000E+00  0.0000E+00  0.6000E+01  0.6000E+01
    -18.689  0.0000E+00  0.0000E+00  0.6000E+01  0.6000E+01
    -18.560  0.0000E+00  0.0000E+00  0.6000E+01  0.6000E+01
    -18.431  0.0000E+00  0.0000E+00  0.6000E+01  0.6000E+01
    -18.302  0.0000E+00  0.0000E+00  0.6000E+01  0.6000E+01
    -18.173  0.0000E+00  0.0000E+00  0.6000E+01  0.6000E+01
    -18.044  0.0000E+00  0.0000E+00  0.6000E+01  0.6000E+01
    -17.915  0.0000E+00  0.0000E+00  0.6000E+01  0.6000E+01
    -17.786  0.0000E+00  0.0000E+00  0.6000E+01  0.6000E+01
    -17.656  0.0000E+00  0.0000E+00  0.6000E+01  0.6000E+01
    -17.527  0.0000E+00  0.0000E+00  0.6000E+01  0.6000E+01
    -17.398  0.0000E+00  0.0000E+00  0.6000E+01  0.6000E+01
    -17.269  0.0000E+00  0.0000E+00  0.6000E+01  0.6000E+01
    -17.140  0.0000E+00  0.0000E+00  0.6000E+01  0.6000E+01
    -17.011  0.0000E+00  0.0000E+00  0.6000E+01  0.6000E+01
    -16.882  0.0000E+00  0.0000E+00  0.6000E+01  0.6000E+01
    -16.753  0.0000E+00  0.0000E+00  0.6000E+01  0.6000E+01
    -16.624  0.0000E+00  0.0000E+00  0.6000E+01  0.6000E+01
    -16.495  0.0000E+00  0.0000E+00  0.6000E+01  0.6000E+01
    -16.366  0.0000E+00  0.0000E+00  0.6000E+01  0.6000E+01
    -16.237  0.0000E+00  0.0000E+00  0.6000E+01  0.6000E+01
    -16.108  0.0000E+00  0.0000E+00  0.6000E+01  0.6000E+01
    -15.979  0.0000E+00  0.0000E+00  0.6000E+01  0.6000E+01
    -15.849  0.0000E+00  0.0000E+00  0.6000E+01  0.6000E+01
    -15.720  0.0000E+00  0.0000E+00  0.6000E+01  0.6000E+01
    -15.591  0.0000E+00  0.0000E+00  0.6000E+01  0.6000E+01
    -15.462  0.0000E+00  0.0000E+00  0.6000E+01  0.6000E+01
    -15.333  0.0000E+00  0.0000E+00  0.6000E+01  0.6000E+01
    -15.204  0.0000E+00  0.0000E+00  0.6000E+01  0.6000E+01
    -15.075  0.0000E+00  0.0000E+00  0.6000E+01  0.6000E+01
    -14.946  0.0000E+00  0.0000E+00  0.6000E+01  0.6000E+01
    -14.817  0.0000E+00  0.0000E+00  0.6000E+01  0.6000E+01
    -14.688  0.0000E+00  0.0000E+00  0.6000E+01  0.6000E+01
    -14.559  0.0000E+00  0.0000E+00  0.6000E+01  0.6000E+01
    -14.430  0.0000E+00  0.0000E+00  0.6000E+01  0.6000E+01
    -14.301  0.0000E+00  0.0000E+00  0.6000E+01  0.6000E+01
    -14.171  0.0000E+00  0.0000E+00  0.6000E+01  0.6000E+01
    -14.042  0.0000E+00  0.0000E+00  0.6000E+01  0.6000E+01
    -13.913  0.0000E+00  0.0000E+00  0.6000E+01  0.6000E+01
    -13.784  0.0000E+00  0.0000E+00  0.6000E+01  0.6000E+01
    -13.655  0.0000E+00  0.0000E+00  0.6000E+01  0.6000E+01
    -13.526  0.0000E+00  0.0000E+00  0.6000E+01  0.6000E+01
    -13.397  0.0000E+00  0.0000E+00  0.6000E+01  0.6000E+01
    -13.268  0.0000E+00  0.0000E+00  0.6000E+01  0.6000E+01
    -13.139  0.0000E+00  0.0000E+00  0.6000E+01  0.6000E+01
    -13.010  0.0000E+00  0.0000E+00  0.6000E+01  0.6000E+01
    -12.881  0.0000E+00  0.0000E+00  0.6000E+01  0.6000E+01
    -12.752  0.0000E+00  0.0000E+00  0.6000E+01  0.6000E+01
    -12.623  0.0000E+00  0.0000E+00  0.6000E+01  0.6000E+01
    -12.493  0.0000E+00  0.0000E+00  0.6000E+01  0.6000E+01
    -12.364  0.0000E+00  0.0000E+00  0.6000E+01  0.6000E+01
    -12.235  0.0000E+00  0.0000E+00  0.6000E+01  0.6000E+01
    -12.106  0.0000E+00  0.0000E+00  0.6000E+01  0.6000E+01
    -11.977  0.0000E+00  0.0000E+00  0.6000E+01  0.6000E+01
    -11.848  0.0000E+00  0.0000E+00  0.6000E+01  0.6000E+01
    -11.719  0.0000E+00  0.0000E+00  0.6000E+01  0.6000E+01
    -11.590  0.0000E+00  0.0000E+00  0.6000E+01  0.6000E+01
    -11.461  0.0000E+00  0.0000E+00  0.6000E+01  0.6000E+01
    -11.332  0.0000E+00  0.0000E+00  0.6000E+01  0.6000E+01
    -11.203  0.0000E+00  0.0000E+00  0.6000E+01  0.6000E+01
    -11.074  0.0000E+00  0.0000E+00  0.6000E+01  0.6000E+01
    -10.945  0.0000E+00  0.0000E+00  0.6000E+01  0.6000E+01
    -10.816  0.0000E+00  0.0000E+00  0.6000E+01  0.6000E+01
    -10.686  0.0000E+00  0.0000E+00  0.6000E+01  0.6000E+01
    -10.557  0.0000E+00  0.0000E+00  0.6000E+01  0.6000E+01
    -10.428  0.0000E+00  0.0000E+00  0.6000E+01  0.6000E+01
    -10.299  0.0000E+00  0.0000E+00  0.6000E+01  0.6000E+01
    -10.170  0.0000E+00  0.0000E+00  0.6000E+01  0.6000E+01
    -10.041  0.0000E+00  0.0000E+00  0.6000E+01  0.6000E+01
     -9.912  0.0000E+00  0.0000E+00  0.6000E+01  0.6000E+01
     -9.783  0.0000E+00  0.0000E+00  0.6000E+01  0.6000E+01
     -9.654  0.0000E+00  0.0000E+00  0.6000E+01  0.6000E+01
     -9.525  0.0000E+00  0.0000E+00  0.6000E+01  0.6000E+01
     -9.396  0.0000E+00  0.0000E+00  0.6000E+01  0.6000E+01
     -9.267  0.0000E+00  0.0000E+00  0.6000E+01  0.6000E+01
     -9.138  0.0000E+00  0.0000E+00  0.6000E+01  0.6000E+01
     -9.008  0.0000E+00  0.0000E+00  0.6000E+01  0.6000E+01
     -8.879  0.0000E+00  0.0000E+00  0.6000E+01  0.6000E+01
     -8.750  0.0000E+00  0.0000E+00  0.6000E+01  0.6000E+01
     -8.621  0.0000E+00  0.0000E+00  0.6000E+01  0.6000E+01
     -8.492  0.0000E+00  0.0000E+00  0.6000E+01  0.6000E+01
     -8.363  0.0000E+00  0.0000E+00  0.6000E+01  0.6000E+01
     -8.234  0.0000E+00  0.0000E+00  0.6000E+01  0.6000E+01
     -8.105  0.0000E+00  0.0000E+00  0.6000E+01  0.6000E+01
     -7.976  0.0000E+00  0.0000E+00  0.6000E+01  0.6000E+01
     -7.847  0.0000E+00  0.0000E+00  0.6000E+01  0.6000E+01
     -7.718  0.0000E+00  0.0000E+00  0.6000E+01  0.6000E+01
     -7.589  0.0000E+00  0.0000E+00  0.6000E+01  0.6000E+01
     -7.460  0.0000E+00  0.0000E+00  0.6000E+01  0.6000E+01
     -7.331  0.0000E+00  0.0000E+00  0.6000E+01  0.6000E+01
     -7.201  0.0000E+00  0.0000E+00  0.6000E+01  0.6000E+01
     -7.072  0.0000E+00  0.0000E+00  0.6000E+01  0.6000E+01
     -6.943  0.0000E+00  0.0000E+00  0.6000E+01  0.6000E+01
     -6.814  0.0000E+00  0.0000E+00  0.6000E+01  0.6000E+01
     -6.685  0.0000E+00  0.0000E+00  0.6000E+01  0.6000E+01
     -6.556  0.0000E+00  0.0000E+00  0.6000E+01  0.6000E+01
     -6.427  0.0000E+00  0.0000E+00  0.6000E+01  0.6000E+01
     -6.298  0.0000E+00  0.0000E+00  0.6000E+01  0.6000E+01
     -6.169  0.0000E+00  0.0000E+00  0.6000E+01  0.6000E+01
     -6.040  0.0000E+00  0.0000E+00  0.6000E+01  0.6000E+01
     -5.911  0.0000E+00  0.0000E+00  0.6000E+01  0.6000E+01
     -5.782  0.0000E+00  0.0000E+00  0.6000E+01  0.6000E+01
     -5.653  0.0000E+00  0.0000E+00  0.6000E+01  0.6000E+01
     -5.523  0.0000E+00  0.0000E+00  0.6000E+01  0.6000E+01
     -5.394  0.0000E+00  0.0000E+00  0.6000E+01  0.6000E+01
     -5.265  0.0000E+00  0.0000E+00  0.6000E+01  0.6000E+01
     -5.136  0.0000E+00  0.0000E+00  0.6000E+01  0.6000E+01
     -5.007  0.0000E+00  0.0000E+00  0.6000E+01  0.6000E+01
     -4.878  0.0000E+00  0.0000E+00  0.6000E+01  0.6000E+01
     -4.749  0.0000E+00  0.0000E+00  0.6000E+01  0.6000E+01
     -4.620  0.0000E+00  0.0000E+00  0.6000E+01  0.6000E+01
     -4.491  0.0000E+00  0.0000E+00  0.6000E+01  0.6000E+01
     -4.362  0.0000E+00  0.0000E+00  0.6000E+01  0.6000E+01
     -4.233  0.0000E+00  0.0000E+00  0.6000E+01  0.6000E+01
     -4.104  0.0000E+00  0.0000E+00  0.6000E+01  0.6000E+01
     -3.975  0.8471E-06  0.1522E-05  0.6000E+01  0.6000E+01
     -3.845  0.3216E-04  0.3184E-04  0.6000E+01  0.6000E+01
     -3.716  0.4264E-03  0.4310E-03  0.6000E+01  0.6000E+01
     -3.587  0.5314E-02  0.5368E-02  0.6001E+01  0.6001E+01
     -3.458  0.4489E-01  0.4520E-01  0.6007E+01  0.6007E+01
     -3.329  0.1407E+00  0.1411E+00  0.6025E+01  0.6025E+01
     -3.200  0.2367E+00  0.2370E+00  0.6055E+01  0.6055E+01
     -3.071  0.2813E+00  0.2816E+00  0.6092E+01  0.6092E+01
     -2.942  0.3589E+00  0.3591E+00  0.6138E+01  0.6138E+01
     -2.813  0.3947E+00  0.3949E+00  0.6189E+01  0.6189E+01
     -2.684  0.4120E+00  0.4122E+00  0.6242E+01  0.6242E+01
     -2.555  0.5132E+00  0.5135E+00  0.6308E+01  0.6309E+01
     -2.426  0.5139E+00  0.5139E+00  0.6375E+01  0.6375E+01
     -2.297  0.5163E+00  0.5166E+00  0.6442E+01  0.6442E+01
     -2.168  0.6263E+00  0.6267E+00  0.6523E+01  0.6523E+01
     -2.038  0.6311E+00  0.6309E+00  0.6604E+01  0.6605E+01
     -1.909  0.6532E+00  0.6534E+00  0.6689E+01  0.6689E+01
     -1.780  0.7102E+00  0.7101E+00  0.6780E+01  0.6781E+01
     -1.651  0.6881E+00  0.6884E+00  0.6869E+01  0.6870E+01
     -1.522  0.8350E+00  0.8357E+00  0.6977E+01  0.6978E+01
     -1.393  0.8443E+00  0.8438E+00  0.7086E+01  0.7087E+01
     -1.264  0.7865E+00  0.7868E+00  0.7188E+01  0.7188E+01
     -1.135  0.8893E+00  0.8896E+00  0.7303E+01  0.7304E+01
     -1.006  0.9416E+00  0.9419E+00  0.7425E+01  0.7425E+01
     -0.877  0.9949E+00  0.9952E+00  0.7553E+01  0.7554E+01
     -0.748  0.9859E+00  0.9857E+00  0.7681E+01  0.7681E+01
     -0.619  0.1009E+01  0.1009E+01  0.7811E+01  0.7812E+01
     -0.490  0.1069E+01  0.1069E+01  0.7949E+01  0.7950E+01
     -0.360  0.1111E+01  0.1111E+01  0.8093E+01  0.8093E+01
     -0.231  0.1157E+01  0.1157E+01  0.8242E+01  0.8243E+01
     -0.102  0.1254E+01  0.1254E+01  0.8404E+01  0.8405E+01
      0.027  0.1224E+01  0.1223E+01  0.8563E+01  0.8563E+01
      0.156  0.1051E+01  0.1051E+01  0.8699E+01  0.8699E+01
      0.285  0.1041E+01  0.1041E+01  0.8833E+01  0.8834E+01
      0.414  0.9670E+00  0.9669E+00  0.8958E+01  0.8959E+01
      0.543  0.1146E+01  0.1146E+01  0.9107E+01  0.9107E+01
      0.672  0.1197E+01  0.1198E+01  0.9261E+01  0.9262E+01
      0.801  0.1393E+01  0.1394E+01  0.9441E+01  0.9442E+01
      0.930  0.1516E+01  0.1516E+01  0.9637E+01  0.9638E+01
      1.059  0.1481E+01  0.1480E+01  0.9829E+01  0.9829E+01
      1.188  0.1324E+01  0.1324E+01  0.1000E+02  0.1000E+02
      1.317  0.1448E+01  0.1448E+01  0.1019E+02  0.1019E+02
      1.447  0.1493E+01  0.1493E+01  0.1038E+02  0.1038E+02
      1.576  0.1483E+01  0.1482E+01  0.1057E+02  0.1057E+02
      1.705  0.1301E+01  0.1300E+01  0.1074E+02  0.1074E+02
      1.834  0.1076E+01  0.1075E+01  0.1088E+02  0.1088E+02
      1.963  0.9739E+00  0.9748E+00  0.1101E+02  0.1101E+02
      2.092  0.1652E+01  0.1655E+01  0.1122E+02  0.1122E+02
      2.221  0.1696E+01  0.1694E+01  0.1144E+02  0.1144E+02
      2.350  0.1122E+01  0.1122E+01  0.1158E+02  0.1158E+02
      2.479  0.1217E+01  0.1218E+01  0.1174E+02  0.1174E+02
      2.608  0.1433E+01  0.1434E+01  0.1193E+02  0.1193E+02
      2.737  0.1492E+01  0.1492E+01  0.1212E+02  0.1212E+02
      2.866  0.1717E+01  0.1718E+01  0.1234E+02  0.1234E+02
      2.995  0.1792E+01  0.1793E+01  0.1257E+02  0.1257E+02
      3.125  0.1801E+01  0.1800E+01  0.1280E+02  0.1281E+02
      3.254  0.1914E+01  0.1914E+01  0.1305E+02  0.1305E+02
      3.383  0.1956E+01  0.1955E+01  0.1331E+02  0.1331E+02
      3.512  0.1713E+01  0.1712E+01  0.1353E+02  0.1353E+02
      3.641  0.1735E+01  0.1735E+01  0.1375E+02  0.1375E+02
      3.770  0.1901E+01  0.1901E+01  0.1400E+02  0.1400E+02
      3.899  0.2117E+01  0.2117E+01  0.1427E+02  0.1427E+02
      4.028  0.2322E+01  0.2322E+01  0.1457E+02  0.1457E+02
      4.157  0.2939E+01  0.2941E+01  0.1495E+02  0.1495E+02
      4.286  0.3608E+01  0.3607E+01  0.1542E+02  0.1542E+02
      4.415  0.2775E+01  0.2772E+01  0.1577E+02  0.1578E+02
      4.544  0.2129E+01  0.2127E+01  0.1605E+02  0.1605E+02
      4.673  0.1981E+01  0.1981E+01  0.1631E+02  0.1631E+02
      4.803  0.2253E+01  0.2253E+01  0.1660E+02  0.1660E+02
      4.932  0.2376E+01  0.2375E+01  0.1691E+02  0.1691E+02
      5.061  0.2452E+01  0.2451E+01  0.1722E+02  0.1722E+02
      5.190  0.2567E+01  0.2566E+01  0.1755E+02  0.1755E+02
      5.319  0.2927E+01  0.2923E+01  0.1793E+02  0.1793E+02
      5.448  0.3349E+01  0.3348E+01  0.1837E+02  0.1836E+02
      5.577  0.2702E+01  0.2702E+01  0.1871E+02  0.1871E+02
      5.706  0.2364E+01  0.2365E+01  0.1902E+02  0.1902E+02
      5.835  0.1828E+01  0.1829E+01  0.1926E+02  0.1926E+02
      5.964  0.1534E+01  0.1535E+01  0.1946E+02  0.1945E+02
      6.093  0.1407E+01  0.1408E+01  0.1964E+02  0.1964E+02
      6.222  0.1250E+01  0.1251E+01  0.1980E+02  0.1980E+02
      6.351  0.1244E+01  0.1244E+01  0.1996E+02  0.1996E+02
      6.480  0.1484E+01  0.1484E+01  0.2015E+02  0.2015E+02
      6.610  0.2034E+01  0.2035E+01  0.2041E+02  0.2041E+02
      6.739  0.2000E+01  0.2001E+01  0.2067E+02  0.2067E+02
      6.868  0.1975E+01  0.1975E+01  0.2093E+02  0.2093E+02
      6.997  0.2235E+01  0.2236E+01  0.2122E+02  0.2122E+02
      7.126  0.2482E+01  0.2481E+01  0.2154E+02  0.2154E+02
      7.255  0.3105E+01  0.3104E+01  0.2194E+02  0.2194E+02
      7.384  0.3466E+01  0.3465E+01  0.2239E+02  0.2239E+02
      7.513  0.3548E+01  0.3546E+01  0.2285E+02  0.2284E+02
      7.642  0.3803E+01  0.3802E+01  0.2334E+02  0.2334E+02
      7.771  0.3629E+01  0.3629E+01  0.2381E+02  0.2381E+02
      7.900  0.3335E+01  0.3336E+01  0.2424E+02  0.2424E+02
      8.029  0.3600E+01  0.3599E+01  0.2470E+02  0.2470E+02
      8.158  0.4294E+01  0.4295E+01  0.2526E+02  0.2526E+02
      8.288  0.3496E+01  0.3499E+01  0.2571E+02  0.2571E+02
      8.417  0.2486E+01  0.2487E+01  0.2603E+02  0.2603E+02
      8.546  0.1892E+01  0.1899E+01  0.2628E+02  0.2628E+02
      8.675  0.1991E+01  0.1998E+01  0.2653E+02  0.2654E+02
      8.804  0.2417E+01  0.2427E+01  0.2685E+02  0.2685E+02
      8.933  0.2386E+01  0.2384E+01  0.2715E+02  0.2716E+02
      9.062  0.1957E+01  0.1963E+01  0.2741E+02  0.2741E+02
      9.191  0.1567E+01  0.1571E+01  0.2761E+02  0.2761E+02
      9.320  0.1267E+01  0.1299E+01  0.2777E+02  0.2778E+02
      9.449  0.8770E+00  0.8763E+00  0.2789E+02  0.2790E+02
      9.578  0.4683E+00  0.4269E+00  0.2795E+02  0.2795E+02
      9.707  0.1918E+00  0.1809E+00  0.2797E+02  0.2798E+02
      9.836  0.1325E+00  0.1207E+00  0.2799E+02  0.2799E+02
      9.966  0.4540E-01  0.4504E-01  0.2800E+02  0.2800E+02
     10.095  0.2004E-01  0.1877E-01  0.2800E+02  0.2800E+02
     10.224  0.4167E-02  0.2669E-02  0.2800E+02  0.2800E+02
     10.353  0.3489E-03  0.1897E-03  0.2800E+02  0.2800E+02
     10.482  0.0000E+00  0.0000E+00  0.2800E+02  0.2800E+02
     10.611  0.0000E+00  0.0000E+00  0.2800E+02  0.2800E+02
     10.740  0.0000E+00  0.0000E+00  0.2800E+02  0.2800E+02
     10.869  0.0000E+00  0.0000E+00  0.2800E+02  0.2800E+02
     10.998  0.0000E+00  0.0000E+00  0.2800E+02  0.2800E+02
     11.127  0.0000E+00  0.0000E+00  0.2800E+02  0.2800E+02
     11.256  0.0000E+00  0.0000E+00  0.2800E+02  0.2800E+02
     11.385  0.0000E+00  0.0000E+00  0.2800E+02  0.2800E+02
     11.514  0.0000E+00  0.0000E+00  0.2800E+02  0.2800E+02
     11.643  0.0000E+00  0.0000E+00  0.2800E+02  0.2800E+02
     11.773  0.0000E+00  0.0000E+00  0.2800E+02  0.2800E+02
     11.77254705    -26.94986561  301      5.69710381      1.00000000
    -26.950  0.0000E+00  0.0000E+00  0.0000E+00  0.0000E+00  0.0000E+00  0.0000E+00  0.0000E+00  0.0000E+00  0.0000E+00  0.0000E+00  0.0000E+00  0.0000E+00  0.0000E+00  0.0000E+00  0.0000E+00  0.0000E+00  0.0000E+00  0.0000E+00
    -26.821  0.0000E+00  0.0000E+00  0.0000E+00  0.0000E+00  0.0000E+00  0.0000E+00  0.0000E+00  0.0000E+00  0.0000E+00  0.0000E+00  0.0000E+00  0.0000E+00  0.0000E+00  0.0000E+00  0.0000E+00  0.0000E+00  0.0000E+00  0.0000E+00
    -26.692  0.0000E+00  0.0000E+00  0.0000E+00  0.0000E+00  0.0000E+00  0.0000E+00  0.0000E+00  0.0000E+00  0.0000E+00  0.0000E+00  0.0000E+00  0.0000E+00  0.0000E+00  0.0000E+00  0.0000E+00  0.0000E+00  0.0000E+00  0.0000E+00
    -26.563  0.0000E+00  0.0000E+00  0.0000E+00  0.0000E+00  0.0000E+00  0.0000E+00  0.0000E+00  0.0000E+00  0.0000E+00  0.0000E+00  0.0000E+00  0.0000E+00  0.0000E+00  0.0000E+00  0.0000E+00  0.0000E+00  0.0000E+00  0.0000E+00
    -26.434  0.0000E+00  0.0000E+00  0.0000E+00  0.0000E+00  0.0000E+00  0.0000E+00  0.0000E+00  0.0000E+00  0.0000E+00  0.0000E+00  0.0000E+00  0.0000E+00  0.0000E+00  0.0000E+00  0.0000E+00  0.0000E+00  0.0000E+00  0.0000E+00
    -26.304  0.0000E+00  0.0000E+00  0.0000E+00  0.0000E+00  0.0000E+00  0.0000E+00  0.0000E+00  0.0000E+00  0.0000E+00  0.0000E+00  0.0000E+00  0.0000E+00  0.0000E+00  0.0000E+00  0.0000E+00  0.0000E+00  0.0000E+00  0.0000E+00
    -26.175  0.0000E+00  0.0000E+00  0.0000E+00  0.0000E+00  0.0000E+00  0.0000E+00  0.0000E+00  0.0000E+00  0.0000E+00  0.0000E+00  0.0000E+00  0.0000E+00  0.0000E+00  0.0000E+00  0.0000E+00  0.0000E+00  0.0000E+00  0.0000E+00
    -26.046  0.0000E+00  0.0000E+00  0.0000E+00  0.0000E+00  0.0000E+00  0.0000E+00  0.0000E+00  0.0000E+00  0.0000E+00  0.0000E+00  0.0000E+00  0.0000E+00  0.0000E+00  0.0000E+00  0.0000E+00  0.0000E+00  0.0000E+00  0.0000E+00
    -25.917  0.0000E+00  0.0000E+00  0.0000E+00  0.0000E+00  0.0000E+00  0.0000E+00  0.0000E+00  0.0000E+00  0.0000E+00  0.0000E+00  0.0000E+00  0.0000E+00  0.0000E+00  0.0000E+00  0.0000E+00  0.0000E+00  0.0000E+00  0.0000E+00
    -25.788  0.0000E+00  0.0000E+00  0.0000E+00  0.0000E+00  0.0000E+00  0.0000E+00  0.0000E+00  0.0000E+00  0.0000E+00  0.0000E+00  0.0000E+00  0.0000E+00  0.0000E+00  0.0000E+00  0.0000E+00  0.0000E+00  0.0000E+00  0.0000E+00
    -25.659  0.9537E-10  0.9504E-10  0.5365E-03  0.5353E-03  0.8311E-08  0.8229E-08  0.5365E-03  0.5353E-03  0.4403E-11  0.4364E-11  0.2890E-12  0.2805E-12  0.3797E-10  0.3785E-10  0.2890E-12  0.2805E-12  0.1121E-09  0.1118E-09
    -25.530  0.1165E-08  0.1161E-08  0.6549E-02  0.6533E-02  0.5392E-03  0.5326E-03  0.6549E-02  0.6533E-02  0.5388E-10  0.5340E-10  0.6346E-11  0.6173E-11  0.4638E-09  0.4623E-09  0.6346E-11  0.6173E-11  0.1369E-08  0.1365E-08
    -25.401  0.1521E-07  0.1516E-07  0.8549E-01  0.8529E-01  0.6581E-02  0.6501E-02  0.8549E-01  0.8529E-01  0.7030E-09  0.6968E-09  0.8043E-10  0.7824E-10  0.6055E-08  0.6036E-08  0.8043E-10  0.7824E-10  0.1787E-07  0.1782E-07
    -25.272  0.1729E-06  0.1724E-06  0.9710E+00  0.9690E+00  0.8592E-01  0.8489E-01  0.9710E+00  0.9690E+00  0.7966E-08  0.7897E-08  0.9692E-09  0.9431E-09  0.6884E-07  0.6864E-07  0.9692E-09  0.9431E-09  0.2033E-06  0.2027E-06
    -25.143  0.7343E-06  0.7332E-06  0.4113E+01  0.4111E+01  0.9765E+00  0.9664E+00  0.4113E+01  0.4111E+01  0.3345E-07  0.3320E-07  0.7247E-08  0.7070E-08  0.2923E-06  0.2919E-06  0.7247E-08  0.7070E-08  0.8645E-06  0.8635E-06
    -25.014  0.3916E-06  0.3918E-06  0.2164E+01  0.2167E+01  0.4128E+01  0.4119E+01  0.2164E+01  0.2167E+01  0.1825E-07  0.1811E-07  0.2253E-07  0.2220E-07  0.1554E-06  0.1554E-06  0.2253E-07  0.2220E-07  0.4547E-06  0.4551E-06
    -24.885  0.4654E-07  0.4664E-07  0.2408E+00  0.2413E+00  0.2144E+01  0.2161E+01  0.2408E+00  0.2413E+00  0.2466E-08  0.2438E-08  0.1119E-07  0.1114E-07  0.1822E-07  0.1820E-07  0.1119E-07  0.1114E-07  0.5050E-07  0.5058E-07
    -24.756  0.4353E-09  0.4427E-09  0.1756E-05  0.1764E-05  0.2366E+00  0.2394E+00  0.1756E-05  0.1764E-05  0.6297E-10  0.6109E-10  0.1218E-08  0.1218E-08  0.1378E-09  0.1342E-09  0.1218E-08  0.1218E-08  0.3246E-12  0.2840E-12
    -24.627  0.0000E+00  0.0000E+00  0.0000E+00  0.0000E+00  0.0000E+00  0.0000E+00  0.0000E+00  0.0000E+00  0.0000E+00  0.0000E+00  0.0000E+00  0.0000E+00  0.0000E+00  0.0000E+00  0.0000E+00  0.0000E+00  0.0000E+00  0.0000E+00
    -24.497  0.0000E+00  0.0000E+00  0.0000E+00  0.0000E+00  0.0000E+00  0.0000E+00  0.0000E+00  0.0000E+00  0.0000E+00  0.0000E+00  0.0000E+00  0.0000E+00  0.0000E+00  0.0000E+00  0.0000E+00  0.0000E+00  0.0000E+00  0.0000E+00
    -24.368  0.0000E+00  0.0000E+00  0.0000E+00  0.0000E+00  0.0000E+00  0.0000E+00  0.0000E+00  0.0000E+00  0.0000E+00  0.0000E+00  0.0000E+00  0.0000E+00  0.0000E+00  0.0000E+00  0.0000E+00  0.0000E+00  0.0000E+00  0.0000E+00
    -24.239  0.0000E+00  0.0000E+00  0.0000E+00  0.0000E+00  0.0000E+00  0.0000E+00  0.0000E+00  0.0000E+00  0.0000E+00  0.0000E+00  0.0000E+00  0.0000E+00  0.0000E+00  0.0000E+00  0.0000E+00  0.0000E+00  0.0000E+00  0.0000E+00
    -24.110  0.0000E+00  0.0000E+00  0.0000E+00  0.0000E+00  0.0000E+00  0.0000E+00  0.0000E+00  0.0000E+00  0.0000E+00  0.0000E+00  0.0000E+00  0.0000E+00  0.0000E+00  0.0000E+00  0.0000E+00  0.0000E+00  0.0000E+00  0.0000E+00
    -23.981  0.0000E+00  0.0000E+00  0.0000E+00  0.0000E+00  0.0000E+00  0.0000E+00  0.0000E+00  0.0000E+00  0.0000E+00  0.0000E+00  0.0000E+00  0.0000E+00  0.0000E+00  0.0000E+00  0.0000E+00  0.0000E+00  0.0000E+00  0.0000E+00
    -23.852  0.0000E+00  0.0000E+00  0.0000E+00  0.0000E+00  0.0000E+00  0.0000E+00  0.0000E+00  0.0000E+00  0.0000E+00  0.0000E+00  0.0000E+00  0.0000E+00  0.0000E+00  0.0000E+00  0.0000E+00  0.0000E+00  0.0000E+00  0.0000E+00
    -23.723  0.0000E+00  0.0000E+00  0.0000E+00  0.0000E+00  0.0000E+00  0.0000E+00  0.0000E+00  0.0000E+00  0.0000E+00  0.0000E+00  0.0000E+00  0.0000E+00  0.0000E+00  0.0000E+00  0.0000E+00  0.0000E+00  0.0000E+00  0.0000E+00
    -23.594  0.0000E+00  0.0000E+00  0.0000E+00  0.0000E+00  0.0000E+00  0.0000E+00  0.0000E+00  0.0000E+00  0.0000E+00  0.0000E+00  0.0000E+00  0.0000E+00  0.0000E+00  0.0000E+00  0.0000E+00  0.0000E+00  0.0000E+00  0.0000E+00
    -23.465  0.0000E+00  0.0000E+00  0.0000E+00  0.0000E+00  0.0000E+00  0.0000E+00  0.0000E+00  0.0000E+00  0.0000E+00  0.0000E+00  0.0000E+00  0.0000E+00  0.0000E+00  0.0000E+00  0.0000E+00  0.0000E+00  0.0000E+00  0.0000E+00
    -23.336  0.0000E+00  0.0000E+00  0.0000E+00  0.0000E+00  0.0000E+00  0.0000E+00  0.0000E+00  0.0000E+00  0.0000E+00  0.0000E+00  0.0000E+00  0.0000E+00  0.0000E+00  0.0000E+00  0.0000E+00  0.0000E+00  0.0000E+00  0.0000E+00
    -23.207  0.0000E+00  0.0000E+00  0.0000E+00  0.0000E+00  0.0000E+00  0.0000E+00  0.0000E+00  0.0000E+00  0.0000E+00  0.0000E+00  0.0000E+00  0.0000E+00  0.0000E+00  0.0000E+00  0.0000E+00  0.0000E+00  0.0000E+00  0.0000E+00
    -23.078  0.0000E+00  0.0000E+00  0.0000E+00  0.0000E+00  0.0000E+00  0.0000E+00  0.0000E+00  0.0000E+00  0.0000E+00  0.0000E+00  0.0000E+00  0.0000E+00  0.0000E+00  0.0000E+00  0.0000E+00  0.0000E+00  0.0000E+00  0.0000E+00
    -22.949  0.0000E+00  0.0000E+00  0.0000E+00  0.0000E+00  0.0000E+00  0.0000E+00  0.0000E+00  0.0000E+00  0.0000E+00  0.0000E+00  0.0000E+00  0.0000E+00  0.0000E+00  0.0000E+00  0.0000E+00  0.0000E+00  0.0000E+00  0.0000E+00
    -22.819  0.0000E+00  0.0000E+00  0.0000E+00  0.0000E+00  0.0000E+00  0.0000E+00  0.0000E+00  0.0000E+00  0.0000E+00  0.0000E+00  0.0000E+00  0.0000E+00  0.0000E+00  0.0000E+00  0.0000E+00  0.0000E+00  0.0000E+00  0.0000E+00
    -22.690  0.0000E+00  0.0000E+00  0.0000E+00  0.0000E+00  0.0000E+00  0.0000E+00  0.0000E+00  0.0000E+00  0.0000E+00  0.0000E+00  0.0000E+00  0.0000E+00  0.0000E+00  0.0000E+00  0.0000E+00  0.0000E+00  0.0000E+00  0.0000E+00
    -22.561  0.0000E+00  0.0000E+00  0.0000E+00  0.0000E+00  0.0000E+00  0.0000E+00  0.0000E+00  0.0000E+00  0.0000E+00  0.0000E+00  0.0000E+00  0.0000E+00  0.0000E+00  0.0000E+00  0.0000E+00  0.0000E+00  0.0000E+00  0.0000E+00
    -22.432  0.0000E+00  0.0000E+00  0.0000E+00  0.0000E+00  0.0000E+00  0.0000E+00  0.0000E+00  0.0000E+00  0.0000E+00  0.0000E+00  0.0000E+00  0.0000E+00  0.0000E+00  0.0000E+00  0.0000E+00  0.0000E+00  0.0000E+00  0.0000E+00
    -22.303  0.0000E+00  0.0000E+00  0.0000E+00  0.0000E+00  0.0000E+00  0.0000E+00  0.0000E+00  0.0000E+00  0.0000E+00  0.0000E+00  0.0000E+00  0.0000E+00  0.0000E+00  0.0000E+00  0.0000E+00  0.0000E+00  0.0000E+00  0.0000E+00
    -22.174  0.0000E+00  0.0000E+00  0.0000E+00  0.0000E+00  0.0000E+00  0.0000E+00  0.0000E+00  0.0000E+00  0.0000E+00  0.0000E+00  0.0000E+00  0.0000E+00  0.0000E+00  0.0000E+00  0.0000E+00  0.0000E+00  0.0000E+00  0.0000E+00
    -22.045  0.0000E+00  0.0000E+00  0.0000E+00  0.0000E+00  0.0000E+00  0.0000E+00  0.0000E+00  0.0000E+00  0.0000E+00  0.0000E+00  0.0000E+00  0.0000E+00  0.0000E+00  0.0000E+00  0.0000E+00  0.0000E+00  0.0000E+00  0.0000E+00
    -21.916  0.0000E+00  0.0000E+00  0.0000E+00  0.0000E+00  0.0000E+00  0.0000E+00  0.0000E+00  0.0000E+00  0.0000E+00  0.0000E+00  0.0000E+00  0.0000E+00  0.0000E+00  0.0000E+00  0.0000E+00  0.0000E+00  0.0000E+00  0.0000E+00
    -21.787  0.0000E+00  0.0000E+00  0.0000E+00  0.0000E+00  0.0000E+00  0.0000E+00  0.0000E+00  0.0000E+00  0.0000E+00  0.0000E+00  0.0000E+00  0.0000E+00  0.0000E+00  0.0000E+00  0.0000E+00  0.0000E+00  0.0000E+00  0.0000E+00
    -21.658  0.0000E+00  0.0000E+00  0.0000E+00  0.0000E+00  0.0000E+00  0.0000E+00  0.0000E+00  0.0000E+00  0.0000E+00  0.0000E+00  0.0000E+00  0.0000E+00  0.0000E+00  0.0000E+00  0.0000E+00  0.0000E+00  0.0000E+00  0.0000E+00
    -21.529  0.0000E+00  0.0000E+00  0.0000E+00  0.0000E+00  0.0000E+00  0.0000E+00  0.0000E+00  0.0000E+00  0.0000E+00  0.0000E+00  0.0000E+00  0.0000E+00  0.0000E+00  0.0000E+00  0.0000E+00  0.0000E+00  0.0000E+00  0.0000E+00
    -21.400  0.0000E+00  0.0000E+00  0.0000E+00  0.0000E+00  0.0000E+00  0.0000E+00  0.0000E+00  0.0000E+00  0.0000E+00  0.0000E+00  0.0000E+00  0.0000E+00  0.0000E+00  0.0000E+00  0.0000E+00  0.0000E+00  0.0000E+00  0.0000E+00
    -21.271  0.0000E+00  0.0000E+00  0.0000E+00  0.0000E+00  0.0000E+00  0.0000E+00  0.0000E+00  0.0000E+00  0.0000E+00  0.0000E+00  0.0000E+00  0.0000E+00  0.0000E+00  0.0000E+00  0.0000E+00  0.0000E+00  0.0000E+00  0.0000E+00
    -21.142  0.0000E+00  0.0000E+00  0.0000E+00  0.0000E+00  0.0000E+00  0.0000E+00  0.0000E+00  0.0000E+00  0.0000E+00  0.0000E+00  0.0000E+00  0.0000E+00  0.0000E+00  0.0000E+00  0.0000E+00  0.0000E+00  0.0000E+00  0.0000E+00
    -21.012  0.0000E+00  0.0000E+00  0.0000E+00  0.0000E+00  0.0000E+00  0.0000E+00  0.0000E+00  0.0000E+00  0.0000E+00  0.0000E+00  0.0000E+00  0.0000E+00  0.0000E+00  0.0000E+00  0.0000E+00  0.0000E+00  0.0000E+00  0.0000E+00
    -20.883  0.0000E+00  0.0000E+00  0.0000E+00  0.0000E+00  0.0000E+00  0.0000E+00  0.0000E+00  0.0000E+00  0.0000E+00  0.0000E+00  0.0000E+00  0.0000E+00  0.0000E+00  0.0000E+00  0.0000E+00  0.0000E+00  0.0000E+00  0.0000E+00
    -20.754  0.0000E+00  0.0000E+00  0.0000E+00  0.0000E+00  0.0000E+00  0.0000E+00  0.0000E+00  0.0000E+00  0.0000E+00  0.0000E+00  0.0000E+00  0.0000E+00  0.0000E+00  0.0000E+00  0.0000E+00  0.0000E+00  0.0000E+00  0.0000E+00
    -20.625  0.0000E+00  0.0000E+00  0.0000E+00  0.0000E+00  0.0000E+00  0.0000E+00  0.0000E+00  0.0000E+00  0.0000E+00  0.0000E+00  0.0000E+00  0.0000E+00  0.0000E+00  0.0000E+00  0.0000E+00  0.0000E+00  0.0000E+00  0.0000E+00
    -20.496  0.0000E+00  0.0000E+00  0.0000E+00  0.0000E+00  0.0000E+00  0.0000E+00  0.0000E+00  0.0000E+00  0.0000E+00  0.0000E+00  0.0000E+00  0.0000E+00  0.0000E+00  0.0000E+00  0.0000E+00  0.0000E+00  0.0000E+00  0.0000E+00