   8   8   1   0
  0.1962581E+02  0.4281828E-09  0.4281828E-09  0.8563656E-09  0.5000000E-15
  1.000000000000000E-004
  CAR 
 unknown system                          
     12.25487352    -26.62910965  301      5.92685114      1.00000000
    -26.629  0.0000E+00  0.0000E+00  0.0000E+00  0.0000E+00
    -26.499  0.0000E+00  0.0000E+00  0.0000E+00  0.0000E+00
    -26.370  0.0000E+00  0.0000E+00  0.0000E+00  0.0000E+00
    -26.240  0.0000E+00  0.0000E+00  0.0000E+00  0.0000E+00
    -26.111  0.0000E+00  0.0000E+00  0.0000E+00  0.0000E+00
    -25.981  0.0000E+00  0.0000E+00  0.0000E+00  0.0000E+00
    -25.851  0.0000E+00  0.0000E+00  0.0000E+00  0.0000E+00
    -25.722  0.0000E+00  0.0000E+00  0.0000E+00  0.0000E+00
    -25.592  0.0000E+00  0.0000E+00  0.0000E+00  0.0000E+00
    -25.463  0.0000E+00  0.0000E+00  0.0000E+00  0.0000E+00
    -25.333  0.2041E-02  0.2033E-02  0.2645E-03  0.2635E-03
    -25.203  0.2624E-01  0.2613E-01  0.3665E-02  0.3651E-02
    -25.074  0.3455E+00  0.3441E+00  0.4845E-01  0.4826E-01
    -24.944  0.4004E+01  0.3990E+01  0.5674E+00  0.5654E+00
    -24.815  0.1860E+02  0.1857E+02  0.2978E+01  0.2972E+01
    -24.685  0.1732E+02  0.1733E+02  0.5223E+01  0.5218E+01
    -24.555  0.5387E+01  0.5424E+01  0.5922E+01  0.5921E+01
    -24.426  0.4815E+00  0.4870E+00  0.5995E+01  0.5995E+01
    -24.296  0.0000E+00  0.0000E+00  0.6000E+01  0.6000E+01
    -24.166  0.0000E+00  0.0000E+00  0.6000E+01  0.6000E+01
    -24.037  0.0000E+00  0.0000E+00  0.6000E+01  0.6000E+01
    -23.907  0.0000E+00  0.0000E+00  0.6000E+01  0.6000E+01
    -23.778  0.0000E+00  0.0000E+00  0.6000E+01  0.6000E+01
    -23.648  0.0000E+00  0.0000E+00  0.6000E+01  0.6000E+01
    -23.518  0.0000E+00  0.0000E+00  0.6000E+01  0.6000E+01
    -23.389  0.0000E+00  0.0000E+00  0.6000E+01  0.6000E+01
    -23.259  0.0000E+00  0.0000E+00  0.6000E+01  0.6000E+01
    -23.130  0.0000E+00  0.0000E+00  0.6000E+01  0.6000E+01
    -23.000  0.0000E+00  0.0000E+00  0.6000E+01  0.6000E+01
    -22.870  0.0000E+00  0.0000E+00  0.6000E+01  0.6000E+01
    -22.741  0.0000E+00  0.0000E+00  0.6000E+01  0.6000E+01
    -22.611  0.0000E+00  0.0000E+00  0.6000E+01  0.6000E+01
    -22.481  0.0000E+00  0.0000E+00  0.6000E+01  0.6000E+01
    -22.352  0.0000E+00  0.0000E+00  0.6000E+01  0.6000E+01
    -22.222  0.0000E+00  0.0000E+00  0.6000E+01  0.6000E+01
    -22.093  0.0000E+00  0.0000E+00  0.6000E+01  0.6000E+01
    -21.963  0.0000E+00  0.0000E+00  0.6000E+01  0.6000E+01
    -21.833  0.0000E+00  0.0000E+00  0.6000E+01  0.6000E+01
    -21.704  0.0000E+00  0.0000E+00  0.6000E+01  0.6000E+01
    -21.574  0.0000E+00  0.0000E+00  0.6000E+01  0.6000E+01
    -21.445  0.0000E+00  0.0000E+00  0.6000E+01  0.6000E+01
    -21.315  0.0000E+00  0.0000E+00  0.6000E+01  0.6000E+01
    -21.185  0.0000E+00  0.0000E+00  0.6000E+01  0.6000E+01
    -21.056  0.0000E+00  0.0000E+00  0.6000E+01  0.6000E+01
    -20.926  0.0000E+00  0.0000E+00  0.6000E+01  0.6000E+01
    -20.797  0.0000E+00  0.0000E+00  0.6000E+01  0.6000E+01
    -20.667  0.0000E+00  0.0000E+00  0.6000E+01  0.6000E+01
    -20.537  0.0000E+00  0.0000E+00  0.6000E+01  0.6000E+01
    -20.408  0.0000E+00  0.0000E+00  0.6000E+01  0.6000E+01
    -20.278  0.0000E+00  0.0000E+00  0.6000E+01  0.6000E+01
    -20.148  0.0000E+00  0.0000E+00  0.6000E+01  0.6000E+01
    -20.019  0.0000E+00  0.0000E+00  0.6000E+01  0.6000E+01
    -19.889  0.0000E+00  0.0000E+00  0.6000E+01  0.6000E+01
    -19.760  0.0000E+00  0.0000E+00  0.6000E+01  0.6000E+01
    -19.630  0.0000E+00  0.0000E+00  0.6000E+01  0.6000E+01
    -19.500  0.0000E+00  0.0000E+00  0.6000E+01  0.6000E+01
    -19.371  0.0000E+00  0.0000E+00  0.6000E+01  0.6000E+01
    -19.241  0.0000E+00  0.0000E+00  0.6000E+01  0.6000E+01
    -19.112  0.0000E+00  0.0000E+00  0.6000E+01  0.6000E+01
    -18.982  0.0000E+00  0.0000E+00  0.6000E+01  0.6000E+01
    -18.852  0.0000E+00  0.0000E+00  0.6000E+01  0.6000E+01
    -18.723  0.0000E+00  0.0000E+00  0.6000E+01  0.6000E+01
    -18.593  0.0000E+00  0.0000E+00  0.6000E+01  0.6000E+01
    -18.463  0.0000E+00  0.0000E+00  0.6000E+01  0.6000E+01
    -18.334  0.0000E+00  0.0000E+00  0.6000E+01  0.6000E+01
    -18.204  0.0000E+00  0.0000E+00  0.6000E+01  0.6000E+01
    -18.075  0.0000E+00  0.0000E+00  0.6000E+01  0.6000E+01
    -17.945  0.0000E+00  0.0000E+00  0.6000E+01  0.6000E+01
    -17.815  0.0000E+00  0.0000E+00  0.6000E+01  0.6000E+01
    -17.686  0.0000E+00  0.0000E+00  0.6000E+01  0.6000E+01
    -17.556  0.0000E+00  0.0000E+00  0.6000E+01  0.6000E+01
    -17.427  0.0000E+00  0.0000E+00  0.6000E+01  0.6000E+01
    -17.297  0.0000E+00  0.0000E+00  0.6000E+01  0.6000E+01
    -17.167  0.0000E+00  0.0000E+00  0.6000E+01  0.6000E+01
    -17.038  0.0000E+00  0.0000E+00  0.6000E+01  0.6000E+01
    -16.908  0.0000E+00  0.0000E+00  0.6000E+01  0.6000E+01
    -16.779  0.0000E+00  0.0000E+00  0.6000E+01  0.6000E+01
    -16.649  0.0000E+00  0.0000E+00  0.6000E+01  0.6000E+01
    -16.519  0.0000E+00  0.0000E+00  0.6000E+01  0.6000E+01
    -16.390  0.0000E+00  0.0000E+00  0.6000E+01  0.6000E+01
    -16.260  0.0000E+00  0.0000E+00  0.6000E+01  0.6000E+01
    -16.130  0.0000E+00  0.0000E+00  0.6000E+01  0.6000E+01
    -16.001  0.0000E+00  0.0000E+00  0.6000E+01  0.6000E+01
    -15.871  0.0000E+00  0.0000E+00  0.6000E+01  0.6000E+01
    -15.742  0.0000E+00  0.0000E+00  0.6000E+01  0.6000E+01
    -15.612  0.0000E+00  0.0000E+00  0.6000E+01  0.6000E+01
    -15.482  0.0000E+00  0.0000E+00  0.6000E+01  0.6000E+01
    -15.353  0.0000E+00  0.0000E+00  0.6000E+01  0.6000E+01
    -15.223  0.0000E+00  0.0000E+00  0.6000E+01  0.6000E+01
    -15.094  0.0000E+00  0.0000E+00  0.6000E+01  0.6000E+01
    -14.964  0.0000E+00  0.0000E+00  0.6000E+01  0.6000E+01
    -14.834  0.0000E+00  0.0000E+00  0.6000E+01  0.6000E+01
    -14.705  0.0000E+00  0.0000E+00  0.6000E+01  0.6000E+01
    -14.575  0.0000E+00  0.0000E+00  0.6000E+01  0.6000E+01
    -14.445  0.0000E+00  0.0000E+00  0.6000E+01  0.6000E+01
    -14.316  0.0000E+00  0.0000E+00  0.6000E+01  0.6000E+01
    -14.186  0.0000E+00  0.0000E+00  0.6000E+01  0.6000E+01
    -14.057  0.0000E+00  0.0000E+00  0.6000E+01  0.6000E+01
    -13.927  0.0000E+00  0.0000E+00  0.6000E+01  0.6000E+01
    -13.797  0.0000E+00  0.0000E+00  0.6000E+01  0.6000E+01
    -13.668  0.0000E+00  0.0000E+00  0.6000E+01  0.6000E+01
    -13.538  0.0000E+00  0.0000E+00  0.6000E+01  0.6000E+01
    -13.409  0.0000E+00  0.0000E+00  0.6000E+01  0.6000E+01
    -13.279  0.0000E+00  0.0000E+00  0.6000E+01  0.6000E+01
    -13.149  0.0000E+00  0.0000E+00  0.6000E+01  0.6000E+01
    -13.020  0.0000E+00  0.0000E+00  0.6000E+01  0.6000E+01
    -12.890  0.0000E+00  0.0000E+00  0.6000E+01  0.6000E+01
    -12.760  0.0000E+00  0.0000E+00  0.6000E+01  0.6000E+01
    -12.631  0.0000E+00  0.0000E+00  0.6000E+01  0.6000E+01
    -12.501  0.0000E+00  0.0000E+00  0.6000E+01  0.6000E+01
    -12.372  0.0000E+00  0.0000E+00  0.6000E+01  0.6000E+01
    -12.242  0.0000E+00  0.0000E+00  0.6000E+01  0.6000E+01
    -12.112  0.0000E+00  0.0000E+00  0.6000E+01  0.6000E+01
    -11.983  0.0000E+00  0.0000E+00  0.6000E+01  0.6000E+01
    -11.853  0.0000E+00  0.0000E+00  0.6000E+01  0.6000E+01
    -11.724  0.0000E+00  0.0000E+00  0.6000E+01  0.6000E+01
    -11.594  0.0000E+00  0.0000E+00  0.6000E+01  0.6000E+01
    -11.464  0.0000E+00  0.0000E+00  0.6000E+01  0.6000E+01
    -11.335  0.0000E+00  0.0000E+00  0.6000E+01  0.6000E+01
    -11.205  0.0000E+00  0.0000E+00  0.6000E+01  0.6000E+01
    -11.076  0.0000E+00  0.0000E+00  0.6000E+01  0.6000E+01
    -10.946  0.0000E+00  0.0000E+00  0.6000E+01  0.6000E+01
    -10.816  0.0000E+00  0.0000E+00  0.6000E+01  0.6000E+01
    -10.687  0.0000E+00  0.0000E+00  0.6000E+01  0.6000E+01
    -10.557  0.0000E+00  0.0000E+00  0.6000E+01  0.6000E+01
    -10.427  0.0000E+00  0.0000E+00  0.6000E+01  0.6000E+01
    -10.298  0.0000E+00  0.0000E+00  0.6000E+01  0.6000E+01
    -10.168  0.0000E+00  0.0000E+00  0.6000E+01  0.6000E+01
    -10.039  0.0000E+00  0.0000E+00  0.6000E+01  0.6000E+01
     -9.909  0.0000E+00  0.0000E+00  0.6000E+01  0.6000E+01
     -9.779  0.0000E+00  0.0000E+00  0.6000E+01  0.6000E+01
     -9.650  0.0000E+00  0.0000E+00  0.6000E+01  0.6000E+01
     -9.520  0.0000E+00  0.0000E+00  0.6000E+01  0.6000E+01
     -9.391  0.0000E+00  0.0000E+00  0.6000E+01  0.6000E+01
     -9.261  0.0000E+00  0.0000E+00  0.6000E+01  0.6000E+01
     -9.131  0.0000E+00  0.0000E+00  0.6000E+01  0.6000E+01
     -9.002  0.0000E+00  0.0000E+00  0.6000E+01  0.6000E+01
     -8.872  0.0000E+00  0.0000E+00  0.6000E+01  0.6000E+01
     -8.742  0.0000E+00  0.0000E+00  0.6000E+01  0.6000E+01
     -8.613  0.0000E+00  0.0000E+00  0.6000E+01  0.6000E+01
     -8.483  0.0000E+00  0.0000E+00  0.6000E+01  0.6000E+01
     -8.354  0.0000E+00  0.0000E+00  0.6000E+01  0.6000E+01
     -8.224  0.0000E+00  0.0000E+00  0.6000E+01  0.6000E+01
     -8.094  0.0000E+00  0.0000E+00  0.6000E+01  0.6000E+01
     -7.965  0.0000E+00  0.0000E+00  0.6000E+01  0.6000E+01
     -7.835  0.0000E+00  0.0000E+00  0.6000E+01  0.6000E+01
     -7.706  0.0000E+00  0.0000E+00  0.6000E+01  0.6000E+01
     -7.576  0.0000E+00  0.0000E+00  0.6000E+01  0.6000E+01
     -7.446  0.0000E+00  0.0000E+00  0.6000E+01  0.6000E+01
     -7.317  0.0000E+00  0.0000E+00  0.6000E+01  0.6000E+01
     -7.187  0.0000E+00  0.0000E+00  0.6000E+01  0.6000E+01
     -7.058  0.0000E+00  0.0000E+00  0.6000E+01  0.6000E+01
     -6.928  0.0000E+00  0.0000E+00  0.6000E+01  0.6000E+01
     -6.798  0.0000E+00  0.0000E+00  0.6000E+01  0.6000E+01
     -6.669  0.0000E+00  0.0000E+00  0.6000E+01  0.6000E+01
     -6.539  0.0000E+00  0.0000E+00  0.6000E+01  0.6000E+01
     -6.409  0.0000E+00  0.0000E+00  0.6000E+01  0.6000E+01
     -6.280  0.0000E+00  0.0000E+00  0.6000E+01  0.6000E+01
     -6.150  0.0000E+00  0.0000E+00  0.6000E+01  0.6000E+01
     -6.021  0.0000E+00  0.0000E+00  0.6000E+01  0.6000E+01
     -5.891  0.0000E+00  0.0000E+00  0.6000E+01  0.6000E+01
     -5.761  0.0000E+00  0.0000E+00  0.6000E+01  0.6000E+01
     -5.632  0.0000E+00  0.0000E+00  0.6000E+01  0.6000E+01
     -5.502  0.0000E+00  0.0000E+00  0.6000E+01  0.6000E+01
     -5.373  0.0000E+00  0.0000E+00  0.6000E+01  0.6000E+01
     -5.243  0.0000E+00  0.0000E+00  0.6000E+01  0.6000E+01
     -5.113  0.0000E+00  0.0000E+00  0.6000E+01  0.6000E+01
     -4.984  0.0000E+00  0.0000E+00  0.6000E+01  0.6000E+01
     -4.854  0.0000E+00  0.0000E+00  0.6000E+01  0.6000E+01
     -4.724  0.0000E+00  0.0000E+00  0.6000E+01  0.6000E+01
     -4.595  0.0000E+00  0.0000E+00  0.6000E+01  0.6000E+01
     -4.465  0.0000E+00  0.0000E+00  0.6000E+01  0.6000E+01
     -4.336  0.0000E+00  0.0000E+00  0.6000E+01  0.6000E+01
     -4.206  0.0000E+00  0.0000E+00  0.6000E+01  0.6000E+01
     -4.076  0.0000E+00  0.0000E+00  0.6000E+01  0.6000E+01
     -3.947  0.0000E+00  0.0000E+00  0.6000E+01  0.6000E+01
     -3.817  0.1005E-04  0.1016E-04  0.6000E+01  0.6000E+01
     -3.688  0.1400E-03  0.1427E-03  0.6000E+01  0.6000E+01
     -3.558  0.1869E-02  0.1887E-02  0.6000E+01  0.6000E+01
     -3.428  0.2015E-01  0.2031E-01  0.6003E+01  0.6003E+01
     -3.299  0.9743E-01  0.9782E-01  0.6016E+01  0.6016E+01
     -3.169  0.1926E+00  0.1930E+00  0.6040E+01  0.6041E+01
     -3.039  0.2573E+00  0.2574E+00  0.6074E+01  0.6074E+01
     -2.910  0.3195E+00  0.3199E+00  0.6115E+01  0.6115E+01
     -2.780  0.3677E+00  0.3676E+00  0.6163E+01  0.6163E+01
     -2.651  0.3965E+00  0.3965E+00  0.6214E+01  0.6215E+01
     -2.521  0.4439E+00  0.4445E+00  0.6272E+01  0.6272E+01
     -2.391  0.5155E+00  0.5154E+00  0.6339E+01  0.6339E+01
     -2.262  0.4937E+00  0.4937E+00  0.6403E+01  0.6403E+01
     -2.132  0.5437E+00  0.5442E+00  0.6474E+01  0.6474E+01
     -2.003  0.6372E+00  0.6373E+00  0.6556E+01  0.6557E+01
     -1.873  0.6110E+00  0.6111E+00  0.6636E+01  0.6636E+01
     -1.743  0.6705E+00  0.6708E+00  0.6722E+01  0.6723E+01
     -1.614  0.6816E+00  0.6813E+00  0.6811E+01  0.6811E+01
     -1.484  0.7091E+00  0.7097E+00  0.6903E+01  0.6903E+01
     -1.355  0.8557E+00  0.8560E+00  0.7014E+01  0.7015E+01
     -1.225  0.7888E+00  0.7884E+00  0.7117E+01  0.7117E+01
     -1.095  0.7957E+00  0.7957E+00  0.7220E+01  0.7220E+01
     -0.966  0.8943E+00  0.8946E+00  0.7336E+01  0.7336E+01
     -0.836  0.9315E+00  0.9317E+00  0.7457E+01  0.7457E+01
     -0.706  0.9904E+00  0.9906E+00  0.7585E+01  0.7586E+01
     -0.577  0.9782E+00  0.9782E+00  0.7712E+01  0.7713E+01
     -0.447  0.9988E+00  0.9989E+00  0.7842E+01  0.7842E+01
     -0.318  0.1069E+01  0.1070E+01  0.7981E+01  0.7981E+01
     -0.188  0.1103E+01  0.1103E+01  0.8124E+01  0.8124E+01
     -0.058  0.1161E+01  0.1162E+01  0.8274E+01  0.8275E+01
      0.071  0.1248E+01  0.1248E+01  0.8436E+01  0.8437E+01
      0.201  0.1188E+01  0.1187E+01  0.8591E+01  0.8591E+01
      0.330  0.1014E+01  0.1014E+01  0.8722E+01  0.8723E+01
      0.460  0.1012E+01  0.1012E+01  0.8854E+01  0.8854E+01
      0.590  0.9597E+00  0.9598E+00  0.8978E+01  0.8979E+01
      0.719  0.1147E+01  0.1147E+01  0.9127E+01  0.9128E+01
      0.849  0.1165E+01  0.1166E+01  0.9278E+01  0.9279E+01
      0.979  0.1380E+01  0.1380E+01  0.9457E+01  0.9458E+01
      1.108  0.1484E+01  0.1484E+01  0.9650E+01  0.9651E+01
      1.238  0.1450E+01  0.1449E+01  0.9838E+01  0.9839E+01
      1.367  0.1291E+01  0.1291E+01  0.1001E+02  0.1001E+02
      1.497  0.1456E+01  0.1457E+01  0.1020E+02  0.1020E+02
      1.627  0.1485E+01  0.1485E+01  0.1039E+02  0.1039E+02
      1.756  0.1452E+01  0.1452E+01  0.1058E+02  0.1058E+02
      1.886  0.1283E+01  0.1282E+01  0.1074E+02  0.1074E+02
      2.015  0.1064E+01  0.1063E+01  0.1088E+02  0.1088E+02
      2.145  0.9832E+00  0.9842E+00  0.1101E+02  0.1101E+02
      2.275  0.1646E+01  0.1649E+01  0.1122E+02  0.1122E+02
      2.404  0.1667E+01  0.1665E+01  0.1144E+02  0.1144E+02
      2.534  0.1135E+01  0.1134E+01  0.1159E+02  0.1159E+02
      2.663  0.1218E+01  0.1218E+01  0.1174E+02  0.1174E+02
      2.793  0.1419E+01  0.1420E+01  0.1193E+02  0.1193E+02
      2.923  0.1473E+01  0.1473E+01  0.1212E+02  0.1212E+02
      3.052  0.1732E+01  0.1732E+01  0.1234E+02  0.1235E+02
      3.182  0.1806E+01  0.1806E+01  0.1258E+02  0.1258E+02
      3.312  0.1721E+01  0.1720E+01  0.1280E+02  0.1280E+02
      3.441  0.1827E+01  0.1827E+01  0.1304E+02  0.1304E+02
      3.571  0.1907E+01  0.1906E+01  0.1329E+02  0.1329E+02
      3.700  0.1725E+01  0.1725E+01  0.1351E+02  0.1351E+02
      3.830  0.1742E+01  0.1742E+01  0.1374E+02  0.1374E+02
      3.960  0.1891E+01  0.1891E+01  0.1398E+02  0.1398E+02
      4.089  0.2081E+01  0.2081E+01  0.1425E+02  0.1425E+02
      4.219  0.2279E+01  0.2280E+01  0.1455E+02  0.1455E+02
      4.348  0.2916E+01  0.2918E+01  0.1493E+02  0.1493E+02
      4.478  0.3573E+01  0.3572E+01  0.1539E+02  0.1539E+02
      4.608  0.2773E+01  0.2769E+01  0.1575E+02  0.1575E+02
      4.737  0.2110E+01  0.2109E+01  0.1602E+02  0.1602E+02
      4.867  0.1915E+01  0.1915E+01  0.1627E+02  0.1627E+02
      4.997  0.2170E+01  0.2169E+01  0.1656E+02  0.1656E+02
      5.126  0.2355E+01  0.2355E+01  0.1686E+02  0.1686E+02
      5.256  0.2362E+01  0.2361E+01  0.1717E+02  0.1717E+02
      5.385  0.2456E+01  0.2455E+01  0.1749E+02  0.1749E+02
      5.515  0.2718E+01  0.2716E+01  0.1784E+02  0.1784E+02
      5.645  0.3306E+01  0.3304E+01  0.1827E+02  0.1827E+02
      5.774  0.2849E+01  0.2848E+01  0.1864E+02  0.1864E+02
      5.904  0.2399E+01  0.2399E+01  0.1895E+02  0.1895E+02
      6.033  0.1946E+01  0.1946E+01  0.1920E+02  0.1920E+02
      6.163  0.1571E+01  0.1571E+01  0.1941E+02  0.1941E+02
      6.293  0.1373E+01  0.1374E+01  0.1958E+02  0.1958E+02
      6.422  0.1238E+01  0.1239E+01  0.1975E+02  0.1975E+02
      6.552  0.1166E+01  0.1166E+01  0.1990E+02  0.1990E+02
      6.682  0.1269E+01  0.1270E+01  0.2006E+02  0.2006E+02
      6.811  0.1711E+01  0.1711E+01  0.2028E+02  0.2028E+02
      6.941  0.2021E+01  0.2023E+01  0.2055E+02  0.2055E+02
      7.070  0.1797E+01  0.1797E+01  0.2078E+02  0.2078E+02
      7.200  0.1982E+01  0.1983E+01  0.2104E+02  0.2104E+02
      7.330  0.2326E+01  0.2326E+01  0.2134E+02  0.2134E+02
      7.459  0.2640E+01  0.2639E+01  0.2168E+02  0.2168E+02
      7.589  0.3326E+01  0.3325E+01  0.2211E+02  0.2211E+02
      7.718  0.3425E+01  0.3424E+01  0.2256E+02  0.2256E+02
      7.848  0.3589E+01  0.3588E+01  0.2302E+02  0.2302E+02
      7.978  0.3714E+01  0.3714E+01  0.2350E+02  0.2350E+02
      8.107  0.3345E+01  0.3345E+01  0.2394E+02  0.2394E+02
      8.237  0.3250E+01  0.3251E+01  0.2436E+02  0.2436E+02
      8.366  0.3622E+01  0.3622E+01  0.2483E+02  0.2483E+02
      8.496  0.4118E+01  0.4120E+01  0.2537E+02  0.2537E+02
      8.626  0.3138E+01  0.3140E+01  0.2577E+02  0.2577E+02
      8.755  0.2247E+01  0.2247E+01  0.2606E+02  0.2607E+02
      8.885  0.1758E+01  0.1760E+01  0.2629E+02  0.2629E+02
      9.015  0.1872E+01  0.1880E+01  0.2654E+02  0.2654E+02
      9.144  0.2346E+01  0.2349E+01  0.2684E+02  0.2684E+02
      9.274  0.2401E+01  0.2394E+01  0.2715E+02  0.2715E+02
      9.403  0.1896E+01  0.1924E+01  0.2740E+02  0.2740E+02
      9.533  0.1493E+01  0.1589E+01  0.2759E+02  0.2761E+02
      9.663  0.1271E+01  0.1271E+01  0.2776E+02  0.2778E+02
      9.792  0.8666E+00  0.8280E+00  0.2787E+02  0.2788E+02
      9.922  0.4984E+00  0.4612E+00  0.2794E+02  0.2794E+02
     10.051  0.2744E+00  0.2018E+00  0.2797E+02  0.2797E+02
     10.181  0.1407E+00  0.1356E+00  0.2799E+02  0.2799E+02
     10.311  0.3450E-01  0.5343E-01  0.2799E+02  0.2799E+02
     10.440  0.1818E-01  0.2131E-01  0.2800E+02  0.2800E+02
     10.570  0.1591E-01  0.1580E-01  0.2800E+02  0.2800E+02
     10.700  0.3834E-02  0.3671E-02  0.2800E+02  0.2800E+02
     10.829  0.3418E-03  0.3129E-03  0.2800E+02  0.2800E+02
     10.959  0.0000E+00  0.0000E+00  0.2800E+02  0.2800E+02
     11.088  0.0000E+00  0.0000E+00  0.2800E+02  0.2800E+02
     11.218  0.0000E+00  0.0000E+00  0.2800E+02  0.2800E+02
     11.348  0.0000E+00  0.0000E+00  0.2800E+02  0.2800E+02
     11.477  0.0000E+00  0.0000E+00  0.2800E+02  0.2800E+02
     11.607  0.0000E+00  0.0000E+00  0.2800E+02  0.2800E+02
     11.736  0.0000E+00  0.0000E+00  0.2800E+02  0.2800E+02
     11.866  0.0000E+00  0.0000E+00  0.2800E+02  0.2800E+02
     11.996  0.0000E+00  0.0000E+00  0.2800E+02  0.2800E+02
     12.125  0.0000E+00  0.0000E+00  0.2800E+02  0.2800E+02
     12.255  0.0000E+00  0.0000E+00  0.2800E+02  0.2800E+02
     12.25487352    -26.62910965  301      5.92685114      1.00000000
    -26.629  0.0000E+00  0.0000E+00  0.0000E+00  0.0000E+00  0.0000E+00  0.0000E+00  0.0000E+00  0.0000E+00  0.0000E+00  0.0000E+00  0.0000E+00  0.0000E+00  0.0000E+00  0.0000E+00  0.0000E+00  0.0000E+00  0.0000E+00  0.0000E+00
    -26.499  0.0000E+00  0.0000E+00  0.0000E+00  0.0000E+00  0.0000E+00  0.0000E+00  0.0000E+00  0.0000E+00  0.0000E+00  0.0000E+00  0.0000E+00  0.0000E+00  0.0000E+00  0.0000E+00  0.0000E+00  0.0000E+00  0.0000E+00  0.0000E+00
    -26.370  0.0000E+00  0.0000E+00  0.0000E+00  0.0000E+00  0.0000E+00  0.0000E+00  0.0000E+00  0.0000E+00  0.0000E+00  0.0000E+00  0.0000E+00  0.0000E+00  0.0000E+00  0.0000E+00  0.0000E+00  0.0000E+00  0.0000E+00  0.0000E+00
    -26.240  0.0000E+00  0.0000E+00  0.0000E+00  0.0000E+00  0.0000E+00  0.0000E+00  0.0000E+00  0.0000E+00  0.0000E+00  0.0000E+00  0.0000E+00  0.0000E+00  0.0000E+00  0.0000E+00  0.0000E+00  0.0000E+00  0.0000E+00  0.0000E+00
    -26.111  0.0000E+00  0.0000E+00  0.0000E+00  0.0000E+00  0.0000E+00  0.0000E+00  0.0000E+00  0.0000E+00  0.0000E+00  0.0000E+00  0.0000E+00  0.0000E+00  0.0000E+00  0.0000E+00  0.0000E+00  0.0000E+00  0.0000E+00  0.0000E+00
    -25.981  0.0000E+00  0.0000E+00  0.0000E+00  0.0000E+00  0.0000E+00  0.0000E+00  0.0000E+00  0.0000E+00  0.0000E+00  0.0000E+00  0.0000E+00  0.0000E+00  0.0000E+00  0.0000E+00  0.0000E+00  0.0000E+00  0.0000E+00  0.0000E+00
    -25.851  0.0000E+00  0.0000E+00  0.0000E+00  0.0000E+00  0.0000E+00  0.0000E+00  0.0000E+00  0.0000E+00  0.0000E+00  0.0000E+00  0.0000E+00  0.0000E+00  0.0000E+00  0.0000E+00  0.0000E+00  0.0000E+00  0.0000E+00  0.0000E+00
    -25.722  0.0000E+00  0.0000E+00  0.0000E+00  0.0000E+00  0.0000E+00  0.0000E+00  0.0000E+00  0.0000E+00  0.0000E+00  0.0000E+00  0.0000E+00  0.0000E+00  0.0000E+00  0.0000E+00  0.0000E+00  0.0000E+00  0.0000E+00  0.0000E+00
    -25.592  0.0000E+00  0.0000E+00  0.0000E+00  0.0000E+00  0.0000E+00  0.0000E+00  0.0000E+00  0.0000E+00  0.0000E+00  0.0000E+00  0.0000E+00  0.0000E+00  0.0000E+00  0.0000E+00  0.0000E+00  0.0000E+00  0.0000E+00  0.0000E+00
    -25.463  0.0000E+00  0.0000E+00  0.0000E+00  0.0000E+00  0.0000E+00  0.0000E+00  0.0000E+00  0.0000E+00  0.0000E+00  0.0000E+00  0.0000E+00  0.0000E+00  0.0000E+00  0.0000E+00  0.0000E+00  0.0000E+00  0.0000E+00  0.0000E+00
    -25.333  0.1193E-09  0.1188E-09  0.5005E-03  0.4986E-03  0.1114E-07  0.1103E-07  0.5005E-03  0.4986E-03  0.5683E-11  0.5630E-11  0.3736E-12  0.3624E-12  0.4777E-10  0.4756E-10  0.3736E-12  0.3624E-12  0.1409E-09  0.1403E-09
    -25.203  0.1475E-08  0.1468E-08  0.6181E-02  0.6157E-02  0.5083E-03  0.5023E-03  0.6181E-02  0.6157E-02  0.7036E-10  0.6969E-10  0.8270E-11  0.8048E-11  0.5903E-09  0.5877E-09  0.8270E-11  0.8048E-11  0.1740E-08  0.1733E-08
    -25.074  0.1948E-07  0.1939E-07  0.8160E-01  0.8130E-01  0.6277E-02  0.6203E-02  0.8160E-01  0.8130E-01  0.9285E-09  0.9197E-09  0.1060E-09  0.1032E-09  0.7794E-08  0.7760E-08  0.1060E-09  0.1032E-09  0.2298E-07  0.2288E-07
    -24.944  0.2248E-06  0.2238E-06  0.9406E+00  0.9375E+00  0.8287E-01  0.8191E-01  0.9406E+00  0.9375E+00  0.1067E-07  0.1057E-07  0.1294E-08  0.1260E-08  0.8995E-07  0.8961E-07  0.1294E-08  0.1260E-08  0.2653E-06  0.2644E-06
    -24.815  0.9792E-06  0.9775E-06  0.4084E+01  0.4081E+01  0.9549E+00  0.9454E+00  0.4084E+01  0.4081E+01  0.4577E-07  0.4545E-07  0.9813E-08  0.9583E-08  0.3919E-06  0.3914E-06  0.9813E-08  0.9583E-08  0.1158E-05  0.1157E-05
    -24.685  0.5326E-06  0.5334E-06  0.2192E+01  0.2198E+01  0.4111E+01  0.4102E+01  0.2192E+01  0.2198E+01  0.2534E-07  0.2519E-07  0.3088E-07  0.3044E-07  0.2124E-06  0.2127E-06  0.3088E-07  0.3044E-07  0.6218E-06  0.6230E-06
    -24.555  0.6335E-07  0.6357E-07  0.2437E+00  0.2445E+00  0.2154E+01  0.2171E+01  0.2437E+00  0.2445E+00  0.3413E-08  0.3380E-08  0.1543E-07  0.1536E-07  0.2486E-07  0.2488E-07  0.1543E-07  0.1536E-07  0.6894E-07  0.6916E-07
    -24.426  0.6122E-09  0.6216E-09  0.2487E-05  0.2501E-05  0.2361E+00  0.2388E+00  0.2487E-05  0.2501E-05  0.8634E-10  0.8385E-10  0.1667E-08  0.1667E-08  0.1879E-09  0.1831E-09  0.1667E-08  0.1667E-08  0.1117E-11  0.9870E-12
    -24.296  0.0000E+00  0.0000E+00  0.0000E+00  0.0000E+00  0.0000E+00  0.0000E+00  0.0000E+00  0.0000E+00  0.0000E+00  0.0000E+00  0.0000E+00  0.0000E+00  0.0000E+00  0.0000E+00  0.0000E+00  0.0000E+00  0.0000E+00  0.0000E+00
    -24.166  0.0000E+00  0.0000E+00  0.0000E+00  0.0000E+00  0.0000E+00  0.0000E+00  0.0000E+00  0.0000E+00  0.0000E+00  0.0000E+00  0.0000E+00  0.0000E+00  0.0000E+00  0.0000E+00  0.0000E+00  0.0000E+00  0.0000E+00  0.0000E+00
    -24.037  0.0000E+00  0.0000E+00  0.0000E+00  0.0000E+00  0.0000E+00  0.0000E+00  0.0000E+00  0.0000E+00  0.0000E+00  0.0000E+00  0.0000E+00  0.0000E+00  0.0000E+00  0.0000E+00  0.0000E+00  0.0000E+00  0.0000E+00  0.0000E+00
    -23.907  0.0000E+00  0.0000E+00  0.0000E+00  0.0000E+00  0.0000E+00  0.0000E+00  0.0000E+00  0.0000E+00  0.0000E+00  0.0000E+00  0.0000E+00  0.0000E+00  0.0000E+00  0.0000E+00  0.0000E+00  0.0000E+00  0.0000E+00  0.0000E+00
    -23.778  0.0000E+00  0.0000E+00  0.0000E+00  0.0000E+00  0.0000E+00  0.0000E+00  0.0000E+00  0.0000E+00  0.0000E+00  0.0000E+00  0.0000E+00  0.0000E+00  0.0000E+00  0.0000E+00  0.0000E+00  0.0000E+00  0.0000E+00  0.0000E+00
    -23.648  0.0000E+00  0.0000E+00  0.0000E+00  0.0000E+00  0.0000E+00  0.0000E+00  0.0000E+00  0.0000E+00  0.0000E+00  0.0000E+00  0.0000E+00  0.0000E+00  0.0000E+00  0.0000E+00  0.0000E+00  0.0000E+00  0.0000E+00  0.0000E+00
    -23.518  0.0000E+00  0.0000E+00  0.0000E+00  0.0000E+00  0.0000E+00  0.0000E+00  0.0000E+00  0.0000E+00  0.0000E+00  0.0000E+00  0.0000E+00  0.0000E+00  0.0000E+00  0.0000E+00  0.0000E+00  0.0000E+00  0.0000E+00  0.0000E+00
    -23.389  0.0000E+00  0.0000E+00  0.0000E+00  0.0000E+00  0.0000E+00  0.0000E+00  0.0000E+00  0.0000E+00  0.0000E+00  0.0000E+00  0.0000E+00  0.0000E+00  0.0000E+00  0.0000E+00  0.0000E+00  0.0000E+00  0.0000E+00  0.0000E+00
    -23.259  0.0000E+00  0.0000E+00  0.0000E+00  0.0000E+00  0.0000E+00  0.0000E+00  0.0000E+00  0.0000E+00  0.0000E+00  0.0000E+00  0.0000E+00  0.0000E+00  0.0000E+00  0.0000E+00  0.0000E+00  0.0000E+00  0.0000E+00  0.0000E+00
    -23.130  0.0000E+00  0.0000E+00  0.0000E+00  0.0000E+00  0.0000E+00  0.0000E+00  0.0000E+00  0.0000E+00  0.0000E+00  0.0000E+00  0.0000E+00  0.0000E+00  0.0000E+00  0.0000E+00  0.0000E+00  0.0000E+00  0.0000E+00  0.0000E+00
    -23.000  0.0000E+00  0.0000E+00  0.0000E+00  0.0000E+00  0.0000E+00  0.0000E+00  0.0000E+00  0.0000E+00  0.0000E+00  0.0000E+00  0.0000E+00  0.0000E+00  0.0000E+00  0.0000E+00  0.0000E+00  0.0000E+00  0.0000E+00  0.0000E+00
    -22.870  0.0000E+00  0.0000E+00  0.0000E+00  0.0000E+00  0.0000E+00  0.0000E+00  0.0000E+00  0.0000E+00  0.0000E+00  0.0000E+00  0.0000E+00  0.0000E+00  0.0000E+00  0.0000E+00  0.0000E+00  0.0000E+00  0.0000E+00  0.0000E+00
    -22.741  0.0000E+00  0.0000E+00  0.0000E+00  0.0000E+00  0.0000E+00  0.0000E+00  0.0000E+00  0.0000E+00  0.0000E+00  0.0000E+00  0.0000E+00  0.0000E+00  0.0000E+00  0.0000E+00  0.0000E+00  0.0000E+00  0.0000E+00  0.0000E+00
    -22.611  0.0000E+00  0.0000E+00  0.0000E+00  0.0000E+00  0.0000E+00  0.0000E+00  0.0000E+00  0.0000E+00  0.0000E+00  0.0000E+00  0.0000E+00  0.0000E+00  0.0000E+00  0.0000E+00  0.0000E+00  0.0000E+00  0.0000E+00  0.0000E+00
    -22.481  0.0000E+00  0.0000E+00  0.0000E+00  0.0000E+00  0.0000E+00  0.0000E+00  0.0000E+00  0.0000E+00  0.0000E+00  0.0000E+00  0.0000E+00  0.0000E+00  0.0000E+00  0.0000E+00  0.0000E+00  0.0000E+00  0.0000E+00  0.0000E+00
    -22.352  0.0000E+00  0.0000E+00  0.0000E+00  0.0000E+00  0.0000E+00  0.0000E+00  0.0000E+00  0.0000E+00  0.0000E+00  0.0000E+00  0.0000E+00  0.0000E+00  0.0000E+00  0.0000E+00  0.0000E+00  0.0000E+00  0.0000E+00  0.0000E+00
    -22.222  0.0000E+00  0.0000E+00  0.0000E+00  0.0000E+00  0.0000E+00  0.0000E+00  0.0000E+00  0.0000E+00  0.0000E+00  0.0000E+00  0.0000E+00  0.0000E+00  0.0000E+00  0.0000E+00  0.0000E+00  0.0000E+00  0.0000E+00  0.0000E+00
    -22.093  0.0000E+00  0.0000E+00  0.0000E+00  0.0000E+00  0.0000E+00  0.0000E+00  0.0000E+00  0.0000E+00  0.0000E+00  0.0000E+00  0.0000E+00  0.0000E+00  0.0000E+00  0.0000E+00  0.0000E+00  0.0000E+00  0.0000E+00  0.0000E+00
    -21.963  0.0000E+00  0.0000E+00  0.0000E+00  0.0000E+00  0.0000E+00  0.0000E+00  0.0000E+00  0.0000E+00  0.0000E+00  0.0000E+00  0.0000E+00  0.0000E+00  0.0000E+00  0.0000E+00  0.0000E+00  0.0000E+00  0.0000E+00  0.0000E+00
    -21.833  0.0000E+00  0.0000E+00  0.0000E+00  0.0000E+00  0.0000E+00  0.0000E+00  0.0000E+00  0.0000E+00  0.0000E+00  0.0000E+00  0.0000E+00  0.0000E+00  0.0000E+00  0.0000E+00  0.0000E+00  0.0000E+00  0.0000E+00  0.0000E+00
    -21.704  0.0000E+00  0.0000E+00  0.0000E+00  0.0000E+00  0.0000E+00  0.0000E+00  0.0000E+00  0.0000E+00  0.0000E+00  0.0000E+00  0.0000E+00  0.0000E+00  0.0000E+00  0.0000E+00  0.0000E+00  0.0000E+00  0.0000E+00  0.0000E+00
    -21.574  0.0000E+00  0.0000E+00  0.0000E+00  0.0000E+00  0.0000E+00  0.0000E+00  0.0000E+00  0.0000E+00  0.0000E+00  0.0000E+00  0.0000E+00  0.0000E+00  0.0000E+00  0.0000E+00  0.0000E+00  0.0000E+00  0.0000E+00  0.0000E+00
    -21.445  0.0000E+00  0.0000E+00  0.0000E+00  0.0000E+00  0.0000E+00  0.0000E+00  0.0000E+00  0.0000E+00  0.0000E+00  0.0000E+00  0.0000E+00  0.0000E+00  0.0000E+00  0.0000E+00  0.0000E+00  0.0000E+00  0.0000E+00  0.0000E+00
    -21.315  0.0000E+00  0.0000E+00  0.0000E+00  0.0000E+00  0.0000E+00  0.0000E+00  0.0000E+00  0.0000E+00  0.0000E+00  0.0000E+00  0.0000E+00  0.0000E+00  0.0000E+00  0.0000E+00  0.0000E+00  0.0000E+00  0.0000E+00  0.0000E+00
    -21.185  0.0000E+00  0.0000E+00  0.0000E+00  0.0000E+00  0.0000E+00  0.0000E+00  0.0000E+00  0.0000E+00  0.0000E+00  0.0000E+00  0.0000E+00  0.0000E+00  0.0000E+00  0.0000E+00  0.0000E+00  0.0000E+00  0.0000E+00  0.0000E+00
    -21.056  0.0000E+00  0.0000E+00  0.0000E+00  0.0000E+00  0.0000E+00  0.0000E+00  0.0000E+00  0.0000E+00  0.0000E+00  0.0000E+00  0.0000E+00  0.0000E+00  0.0000E+00  0.0000E+00  0.0000E+00  0.0000E+00  0.0000E+00  0.0000E+00
    -20.926  0.0000E+00  0.0000E+00  0.0000E+00  0.0000E+00  0.0000E+00  0.0000E+00  0.0000E+00  0.0000E+00  0.0000E+00  0.0000E+00  0.0000E+00  0.0000E+00  0.0000E+00  0.0000E+00  0.0000E+00  0.0000E+00  0.0000E+00  0.0000E+00
    -20.797  0.0000E+00  0.0000E+00  0.0000E+00  0.0000E+00  0.0000E+00  0.0000E+00  0.0000E+00  0.0000E+00  0.0000E+00  0.0000E+00  0.0000E+00  0.0000E+00  0.0000E+00  0.0000E+00  0.0000E+00  0.0000E+00  0.0000E+00  0.0000E+00
    -20.667  0.0000E+00  0.0000E+00  0.0000E+00  0.0000E+00  0.0000E+00  0.0000E+00  0.0000E+00  0.0000E+00  0.0000E+00  0.0000E+00  0.0000E+00  0.0000E+00  0.0000E+00  0.0000E+00  0.0000E+00  0.0000E+00  0.0000E+00  0.0000E+00
    -20.537  0.0000E+00  0.0000E+00  0.0000E+00  0.0000E+00  0.0000E+00  0.0000E+00  0.0000E+00  0.0000E+00  0.0000E+00  0.0000E+00  0.0000E+00  0.0000E+00  0.0000E+00  0.0000E+00  0.0000E+00  0.0000E+00  0.0000E+00  0.0000E+00
    -20.408  0.0000E+00  0.0000E+00  0.0000E+00  0.0000E+00  0.0000E+00  0.0000E+00  0.0000E+00  0.0000E+00  0.0000E+00  0.0000E+00  0.0000E+00  0.0000E+00  0.0000E+00  0.0000E+00  0.0000E+00  0.0000E+00  0.0000E+00  0.0000E+00
    -20.278  0.0000E+00  0.0000E+00  0.0000E+00  0.0000E+00  0.0000E+00  0.0000E+00  0.0000E+00  0.0000E+00  0.0000E+00  0.0000E+00  0.0000E+00  0.0000E+00  0.0000E+00  0.0000E+00  0.0000E+00  0.0000E+00  0.0000E+00  0.0000E+00
    -20.148  0.0000E+00  0.0000E+00  0.0000E+00  0.0000E+00  0.0000E+00  0.0000E+00  0.0000E+00  0.0000E+00  0.0000E+00  0.0000E+00  0.0000E+00  0.0000E+00  0.0000E+00  0.0000E+00  0.0000E+00  0.0000E+00  0.0000E+00  0.0000E+00