   8   8   1   0
  0.1449143E+02  0.3870114E-09  0.3870114E-09  0.7740228E-09  0.5000000E-15
  1.000000000000000E-004
  CAR 
 unknown system                          
     16.63018410    -22.99501835  301      8.64748056      1.00000000
    -22.995  0.0000E+00  0.0000E+00  0.0000E+00  0.0000E+00
    -22.863  0.0000E+00  0.0000E+00  0.0000E+00  0.0000E+00
    -22.731  0.0000E+00  0.0000E+00  0.0000E+00  0.0000E+00
    -22.599  0.0000E+00  0.0000E+00  0.0000E+00  0.0000E+00
    -22.467  0.0000E+00  0.0000E+00  0.0000E+00  0.0000E+00
    -22.335  0.0000E+00  0.0000E+00  0.0000E+00  0.0000E+00
    -22.203  0.0000E+00  0.0000E+00  0.0000E+00  0.0000E+00
    -22.070  0.0000E+00  0.0000E+00  0.0000E+00  0.0000E+00
    -21.938  0.0000E+00  0.0000E+00  0.0000E+00  0.0000E+00
    -21.806  0.0000E+00  0.0000E+00  0.0000E+00  0.0000E+00
    -21.674  0.7374E-03  0.7607E-03  0.9740E-04  0.1005E-03
    -21.542  0.1327E-01  0.1352E-01  0.1850E-02  0.1886E-02
    -21.410  0.1812E+00  0.1847E+00  0.2579E-01  0.2628E-01
    -21.278  0.2302E+01  0.2341E+01  0.3298E+00  0.3354E+00
    -21.146  0.1448E+02  0.1457E+02  0.2242E+01  0.2260E+01
    -21.014  0.2031E+02  0.2021E+02  0.4924E+01  0.4930E+01
    -20.882  0.7304E+01  0.7261E+01  0.5889E+01  0.5889E+01
    -20.750  0.7438E+00  0.7395E+00  0.5992E+01  0.5992E+01
    -20.618  0.0000E+00  0.0000E+00  0.6000E+01  0.6000E+01
    -20.485  0.0000E+00  0.0000E+00  0.6000E+01  0.6000E+01
    -20.353  0.0000E+00  0.0000E+00  0.6000E+01  0.6000E+01
    -20.221  0.0000E+00  0.0000E+00  0.6000E+01  0.6000E+01
    -20.089  0.0000E+00  0.0000E+00  0.6000E+01  0.6000E+01
    -19.957  0.0000E+00  0.0000E+00  0.6000E+01  0.6000E+01
    -19.825  0.0000E+00  0.0000E+00  0.6000E+01  0.6000E+01
    -19.693  0.0000E+00  0.0000E+00  0.6000E+01  0.6000E+01
    -19.561  0.0000E+00  0.0000E+00  0.6000E+01  0.6000E+01
    -19.429  0.0000E+00  0.0000E+00  0.6000E+01  0.6000E+01
    -19.297  0.0000E+00  0.0000E+00  0.6000E+01  0.6000E+01
    -19.165  0.0000E+00  0.0000E+00  0.6000E+01  0.6000E+01
    -19.032  0.0000E+00  0.0000E+00  0.6000E+01  0.6000E+01
    -18.900  0.0000E+00  0.0000E+00  0.6000E+01  0.6000E+01
    -18.768  0.0000E+00  0.0000E+00  0.6000E+01  0.6000E+01
    -18.636  0.0000E+00  0.0000E+00  0.6000E+01  0.6000E+01
    -18.504  0.0000E+00  0.0000E+00  0.6000E+01  0.6000E+01
    -18.372  0.0000E+00  0.0000E+00  0.6000E+01  0.6000E+01
    -18.240  0.0000E+00  0.0000E+00  0.6000E+01  0.6000E+01
    -18.108  0.0000E+00  0.0000E+00  0.6000E+01  0.6000E+01
    -17.976  0.0000E+00  0.0000E+00  0.6000E+01  0.6000E+01
    -17.844  0.0000E+00  0.0000E+00  0.6000E+01  0.6000E+01
    -17.712  0.0000E+00  0.0000E+00  0.6000E+01  0.6000E+01
    -17.580  0.0000E+00  0.0000E+00  0.6000E+01  0.6000E+01
    -17.447  0.0000E+00  0.0000E+00  0.6000E+01  0.6000E+01
    -17.315  0.0000E+00  0.0000E+00  0.6000E+01  0.6000E+01
    -17.183  0.0000E+00  0.0000E+00  0.6000E+01  0.6000E+01
    -17.051  0.0000E+00  0.0000E+00  0.6000E+01  0.6000E+01
    -16.919  0.0000E+00  0.0000E+00  0.6000E+01  0.6000E+01
    -16.787  0.0000E+00  0.0000E+00  0.6000E+01  0.6000E+01
    -16.655  0.0000E+00  0.0000E+00  0.6000E+01  0.6000E+01
    -16.523  0.0000E+00  0.0000E+00  0.6000E+01  0.6000E+01
    -16.391  0.0000E+00  0.0000E+00  0.6000E+01  0.6000E+01
    -16.259  0.0000E+00  0.0000E+00  0.6000E+01  0.6000E+01
    -16.127  0.0000E+00  0.0000E+00  0.6000E+01  0.6000E+01
    -15.995  0.0000E+00  0.0000E+00  0.6000E+01  0.6000E+01
    -15.862  0.0000E+00  0.0000E+00  0.6000E+01  0.6000E+01
    -15.730  0.0000E+00  0.0000E+00  0.6000E+01  0.6000E+01
    -15.598  0.0000E+00  0.0000E+00  0.6000E+01  0.6000E+01
    -15.466  0.0000E+00  0.0000E+00  0.6000E+01  0.6000E+01
    -15.334  0.0000E+00  0.0000E+00  0.6000E+01  0.6000E+01
    -15.202  0.0000E+00  0.0000E+00  0.6000E+01  0.6000E+01
    -15.070  0.0000E+00  0.0000E+00  0.6000E+01  0.6000E+01
    -14.938  0.0000E+00  0.0000E+00  0.6000E+01  0.6000E+01
    -14.806  0.0000E+00  0.0000E+00  0.6000E+01  0.6000E+01
    -14.674  0.0000E+00  0.0000E+00  0.6000E+01  0.6000E+01
    -14.542  0.0000E+00  0.0000E+00  0.6000E+01  0.6000E+01
    -14.410  0.0000E+00  0.0000E+00  0.6000E+01  0.6000E+01
    -14.277  0.0000E+00  0.0000E+00  0.6000E+01  0.6000E+01
    -14.145  0.0000E+00  0.0000E+00  0.6000E+01  0.6000E+01
    -14.013  0.0000E+00  0.0000E+00  0.6000E+01  0.6000E+01
    -13.881  0.0000E+00  0.0000E+00  0.6000E+01  0.6000E+01
    -13.749  0.0000E+00  0.0000E+00  0.6000E+01  0.6000E+01
    -13.617  0.0000E+00  0.0000E+00  0.6000E+01  0.6000E+01
    -13.485  0.0000E+00  0.0000E+00  0.6000E+01  0.6000E+01
    -13.353  0.0000E+00  0.0000E+00  0.6000E+01  0.6000E+01
    -13.221  0.0000E+00  0.0000E+00  0.6000E+01  0.6000E+01
    -13.089  0.0000E+00  0.0000E+00  0.6000E+01  0.6000E+01
    -12.957  0.0000E+00  0.0000E+00  0.6000E+01  0.6000E+01
    -12.825  0.0000E+00  0.0000E+00  0.6000E+01  0.6000E+01
    -12.692  0.0000E+00  0.0000E+00  0.6000E+01  0.6000E+01
    -12.560  0.0000E+00  0.0000E+00  0.6000E+01  0.6000E+01
    -12.428  0.0000E+00  0.0000E+00  0.6000E+01  0.6000E+01
    -12.296  0.0000E+00  0.0000E+00  0.6000E+01  0.6000E+01
    -12.164  0.0000E+00  0.0000E+00  0.6000E+01  0.6000E+01
    -12.032  0.0000E+00  0.0000E+00  0.6000E+01  0.6000E+01
    -11.900  0.0000E+00  0.0000E+00  0.6000E+01  0.6000E+01
    -11.768  0.0000E+00  0.0000E+00  0.6000E+01  0.6000E+01
    -11.636  0.0000E+00  0.0000E+00  0.6000E+01  0.6000E+01
    -11.504  0.0000E+00  0.0000E+00  0.6000E+01  0.6000E+01
    -11.372  0.0000E+00  0.0000E+00  0.6000E+01  0.6000E+01
    -11.240  0.0000E+00  0.0000E+00  0.6000E+01  0.6000E+01
    -11.107  0.0000E+00  0.0000E+00  0.6000E+01  0.6000E+01
    -10.975  0.0000E+00  0.0000E+00  0.6000E+01  0.6000E+01
    -10.843  0.0000E+00  0.0000E+00  0.6000E+01  0.6000E+01
    -10.711  0.0000E+00  0.0000E+00  0.6000E+01  0.6000E+01
    -10.579  0.0000E+00  0.0000E+00  0.6000E+01  0.6000E+01
    -10.447  0.0000E+00  0.0000E+00  0.6000E+01  0.6000E+01
    -10.315  0.0000E+00  0.0000E+00  0.6000E+01  0.6000E+01
    -10.183  0.0000E+00  0.0000E+00  0.6000E+01  0.6000E+01
    -10.051  0.0000E+00  0.0000E+00  0.6000E+01  0.6000E+01
     -9.919  0.0000E+00  0.0000E+00  0.6000E+01  0.6000E+01
     -9.787  0.0000E+00  0.0000E+00  0.6000E+01  0.6000E+01
     -9.655  0.0000E+00  0.0000E+00  0.6000E+01  0.6000E+01
     -9.522  0.0000E+00  0.0000E+00  0.6000E+01  0.6000E+01
     -9.390  0.0000E+00  0.0000E+00  0.6000E+01  0.6000E+01
     -9.258  0.0000E+00  0.0000E+00  0.6000E+01  0.6000E+01
     -9.126  0.0000E+00  0.0000E+00  0.6000E+01  0.6000E+01
     -8.994  0.0000E+00  0.0000E+00  0.6000E+01  0.6000E+01
     -8.862  0.0000E+00  0.0000E+00  0.6000E+01  0.6000E+01
     -8.730  0.0000E+00  0.0000E+00  0.6000E+01  0.6000E+01
     -8.598  0.0000E+00  0.0000E+00  0.6000E+01  0.6000E+01
     -8.466  0.0000E+00  0.0000E+00  0.6000E+01  0.6000E+01
     -8.334  0.0000E+00  0.0000E+00  0.6000E+01  0.6000E+01
     -8.202  0.0000E+00  0.0000E+00  0.6000E+01  0.6000E+01
     -8.070  0.0000E+00  0.0000E+00  0.6000E+01  0.6000E+01
     -7.937  0.0000E+00  0.0000E+00  0.6000E+01  0.6000E+01
     -7.805  0.0000E+00  0.0000E+00  0.6000E+01  0.6000E+01
     -7.673  0.0000E+00  0.0000E+00  0.6000E+01  0.6000E+01
     -7.541  0.0000E+00  0.0000E+00  0.6000E+01  0.6000E+01
     -7.409  0.0000E+00  0.0000E+00  0.6000E+01  0.6000E+01
     -7.277  0.0000E+00  0.0000E+00  0.6000E+01  0.6000E+01
     -7.145  0.0000E+00  0.0000E+00  0.6000E+01  0.6000E+01
     -7.013  0.0000E+00  0.0000E+00  0.6000E+01  0.6000E+01
     -6.881  0.0000E+00  0.0000E+00  0.6000E+01  0.6000E+01
     -6.749  0.0000E+00  0.0000E+00  0.6000E+01  0.6000E+01
     -6.617  0.0000E+00  0.0000E+00  0.6000E+01  0.6000E+01
     -6.485  0.0000E+00  0.0000E+00  0.6000E+01  0.6000E+01
     -6.352  0.0000E+00  0.0000E+00  0.6000E+01  0.6000E+01
     -6.220  0.0000E+00  0.0000E+00  0.6000E+01  0.6000E+01
     -6.088  0.0000E+00  0.0000E+00  0.6000E+01  0.6000E+01
     -5.956  0.0000E+00  0.0000E+00  0.6000E+01  0.6000E+01
     -5.824  0.0000E+00  0.0000E+00  0.6000E+01  0.6000E+01
     -5.692  0.0000E+00  0.0000E+00  0.6000E+01  0.6000E+01
     -5.560  0.0000E+00  0.0000E+00  0.6000E+01  0.6000E+01
     -5.428  0.0000E+00  0.0000E+00  0.6000E+01  0.6000E+01
     -5.296  0.0000E+00  0.0000E+00  0.6000E+01  0.6000E+01
     -5.164  0.0000E+00  0.0000E+00  0.6000E+01  0.6000E+01
     -5.032  0.0000E+00  0.0000E+00  0.6000E+01  0.6000E+01
     -4.900  0.0000E+00  0.0000E+00  0.6000E+01  0.6000E+01
     -4.767  0.0000E+00  0.0000E+00  0.6000E+01  0.6000E+01
     -4.635  0.0000E+00  0.0000E+00  0.6000E+01  0.6000E+01
     -4.503  0.0000E+00  0.0000E+00  0.6000E+01  0.6000E+01
     -4.371  0.0000E+00  0.0000E+00  0.6000E+01  0.6000E+01
     -4.239  0.0000E+00  0.0000E+00  0.6000E+01  0.6000E+01
     -4.107  0.0000E+00  0.0000E+00  0.6000E+01  0.6000E+01
     -3.975  0.0000E+00  0.0000E+00  0.6000E+01  0.6000E+01
     -3.843  0.0000E+00  0.0000E+00  0.6000E+01  0.6000E+01
     -3.711  0.0000E+00  0.0000E+00  0.6000E+01  0.6000E+01
     -3.579  0.0000E+00  0.0000E+00  0.6000E+01  0.6000E+01
     -3.447  0.0000E+00  0.0000E+00  0.6000E+01  0.6000E+01
     -3.315  0.0000E+00  0.0000E+00  0.6000E+01  0.6000E+01
     -3.182  0.0000E+00  0.0000E+00  0.6000E+01  0.6000E+01
     -3.050  0.0000E+00  0.0000E+00  0.6000E+01  0.6000E+01
     -2.918  0.0000E+00  0.0000E+00  0.6000E+01  0.6000E+01
     -2.786  0.1650E-05  0.1710E-05  0.6000E+01  0.6000E+01
     -2.654  0.3042E-04  0.3153E-04  0.6000E+01  0.6000E+01
     -2.522  0.4222E-03  0.4375E-03  0.6000E+01  0.6000E+01
     -2.390  0.5402E-02  0.5580E-02  0.6001E+01  0.6001E+01
     -2.258  0.4044E-01  0.4128E-01  0.6006E+01  0.6006E+01
     -2.126  0.1057E+00  0.1063E+00  0.6020E+01  0.6020E+01
     -1.994  0.1628E+00  0.1639E+00  0.6042E+01  0.6042E+01
     -1.862  0.2017E+00  0.2013E+00  0.6068E+01  0.6069E+01
     -1.729  0.2240E+00  0.2254E+00  0.6098E+01  0.6098E+01
     -1.597  0.2828E+00  0.2828E+00  0.6135E+01  0.6136E+01
     -1.465  0.2944E+00  0.2950E+00  0.6174E+01  0.6175E+01
     -1.333  0.3107E+00  0.3102E+00  0.6215E+01  0.6216E+01
     -1.201  0.3321E+00  0.3339E+00  0.6259E+01  0.6260E+01
     -1.069  0.4238E+00  0.4238E+00  0.6315E+01  0.6316E+01
     -0.937  0.3973E+00  0.3972E+00  0.6368E+01  0.6368E+01
     -0.805  0.3776E+00  0.3777E+00  0.6418E+01  0.6418E+01
     -0.673  0.4503E+00  0.4518E+00  0.6477E+01  0.6478E+01
     -0.541  0.5290E+00  0.5287E+00  0.6547E+01  0.6548E+01
     -0.409  0.4830E+00  0.4827E+00  0.6611E+01  0.6612E+01
     -0.277  0.5087E+00  0.5097E+00  0.6678E+01  0.6679E+01
     -0.144  0.5815E+00  0.5818E+00  0.6755E+01  0.6756E+01
     -0.012  0.5247E+00  0.5239E+00  0.6825E+01  0.6826E+01
      0.120  0.5856E+00  0.5874E+00  0.6902E+01  0.6903E+01
      0.252  0.7178E+00  0.7190E+00  0.6997E+01  0.6998E+01
      0.384  0.6744E+00  0.6726E+00  0.7086E+01  0.7087E+01
      0.516  0.6343E+00  0.6350E+00  0.7170E+01  0.7171E+01
      0.648  0.7145E+00  0.7157E+00  0.7265E+01  0.7266E+01
      0.780  0.7687E+00  0.7684E+00  0.7366E+01  0.7368E+01
      0.912  0.7642E+00  0.7646E+00  0.7467E+01  0.7469E+01
      1.044  0.8504E+00  0.8515E+00  0.7580E+01  0.7581E+01
      1.176  0.8447E+00  0.8461E+00  0.7692E+01  0.7693E+01
      1.308  0.9259E+00  0.9258E+00  0.7814E+01  0.7816E+01
      1.441  0.8885E+00  0.8883E+00  0.7932E+01  0.7933E+01
      1.573  0.9679E+00  0.9712E+00  0.8060E+01  0.8062E+01
      1.705  0.1117E+01  0.1118E+01  0.8207E+01  0.8210E+01
      1.837  0.1138E+01  0.1138E+01  0.8358E+01  0.8360E+01
      1.969  0.1135E+01  0.1134E+01  0.8508E+01  0.8510E+01
      2.101  0.9399E+00  0.9351E+00  0.8632E+01  0.8634E+01
      2.233  0.8496E+00  0.8510E+00  0.8745E+01  0.8746E+01
      2.365  0.9213E+00  0.9202E+00  0.8867E+01  0.8868E+01
      2.497  0.8221E+00  0.8220E+00  0.8975E+01  0.8977E+01
      2.629  0.9456E+00  0.9465E+00  0.9101E+01  0.9102E+01
      2.761  0.9041E+00  0.9037E+00  0.9220E+01  0.9222E+01
      2.893  0.1031E+01  0.1034E+01  0.9357E+01  0.9359E+01
      3.026  0.1035E+01  0.1032E+01  0.9494E+01  0.9495E+01
      3.158  0.9073E+00  0.9086E+00  0.9614E+01  0.9615E+01
      3.290  0.1110E+01  0.1113E+01  0.9760E+01  0.9762E+01
      3.422  0.1225E+01  0.1226E+01  0.9923E+01  0.9925E+01
      3.554  0.1343E+01  0.1346E+01  0.1010E+02  0.1010E+02
      3.686  0.1582E+01  0.1580E+01  0.1031E+02  0.1031E+02
      3.818  0.1264E+01  0.1262E+01  0.1048E+02  0.1048E+02
      3.950  0.1245E+01  0.1245E+01  0.1064E+02  0.1064E+02
      4.082  0.1185E+01  0.1182E+01  0.1080E+02  0.1080E+02
      4.214  0.1086E+01  0.1085E+01  0.1094E+02  0.1094E+02
      4.346  0.1136E+01  0.1139E+01  0.1109E+02  0.1109E+02
      4.478  0.1568E+01  0.1574E+01  0.1130E+02  0.1130E+02
      4.611  0.1481E+01  0.1475E+01  0.1150E+02  0.1150E+02
      4.743  0.1115E+01  0.1112E+01  0.1164E+02  0.1164E+02
      4.875  0.1013E+01  0.1013E+01  0.1178E+02  0.1178E+02
      5.007  0.1327E+01  0.1333E+01  0.1195E+02  0.1195E+02
      5.139  0.1595E+01  0.1595E+01  0.1216E+02  0.1217E+02
      5.271  0.1529E+01  0.1530E+01  0.1237E+02  0.1237E+02
      5.403  0.1483E+01  0.1481E+01  0.1256E+02  0.1256E+02
      5.535  0.1305E+01  0.1304E+01  0.1273E+02  0.1274E+02
      5.667  0.1415E+01  0.1416E+01  0.1292E+02  0.1292E+02
      5.799  0.1218E+01  0.1214E+01  0.1308E+02  0.1308E+02
      5.931  0.1211E+01  0.1216E+01  0.1324E+02  0.1325E+02
      6.063  0.1655E+01  0.1656E+01  0.1346E+02  0.1346E+02
      6.196  0.1802E+01  0.1803E+01  0.1370E+02  0.1370E+02
      6.328  0.2003E+01  0.2002E+01  0.1397E+02  0.1397E+02
      6.460  0.1988E+01  0.1986E+01  0.1423E+02  0.1423E+02
      6.592  0.1910E+01  0.1911E+01  0.1448E+02  0.1448E+02
      6.724  0.2485E+01  0.2494E+01  0.1481E+02  0.1481E+02
      6.856  0.3169E+01  0.3170E+01  0.1523E+02  0.1523E+02
      6.988  0.2520E+01  0.2508E+01  0.1556E+02  0.1556E+02
      7.120  0.1868E+01  0.1865E+01  0.1581E+02  0.1581E+02
      7.252  0.1924E+01  0.1921E+01  0.1606E+02  0.1607E+02
      7.384  0.1702E+01  0.1701E+01  0.1629E+02  0.1629E+02
      7.516  0.1942E+01  0.1943E+01  0.1655E+02  0.1655E+02
      7.648  0.2044E+01  0.2043E+01  0.1682E+02  0.1682E+02
      7.781  0.1946E+01  0.1946E+01  0.1707E+02  0.1707E+02
      7.913  0.1669E+01  0.1667E+01  0.1729E+02  0.1730E+02
      8.045  0.1603E+01  0.1601E+01  0.1751E+02  0.1751E+02
      8.177  0.1862E+01  0.1862E+01  0.1775E+02  0.1775E+02
      8.309  0.2650E+01  0.2651E+01  0.1810E+02  0.1810E+02
      8.441  0.2825E+01  0.2824E+01  0.1848E+02  0.1848E+02
      8.573  0.2696E+01  0.2692E+01  0.1883E+02  0.1883E+02
      8.705  0.2073E+01  0.2071E+01  0.1911E+02  0.1911E+02
      8.837  0.1647E+01  0.1645E+01  0.1933E+02  0.1933E+02
      8.969  0.1421E+01  0.1422E+01  0.1951E+02  0.1951E+02
      9.101  0.9995E+00  0.1000E+01  0.1965E+02  0.1965E+02
      9.233  0.7698E+00  0.7702E+00  0.1975E+02  0.1975E+02
      9.366  0.8437E+00  0.8444E+00  0.1986E+02  0.1986E+02
      9.498  0.7558E+00  0.7558E+00  0.1996E+02  0.1996E+02
      9.630  0.8179E+00  0.8183E+00  0.2007E+02  0.2007E+02
      9.762  0.8141E+00  0.8182E+00  0.2018E+02  0.2018E+02
      9.894  0.8755E+00  0.8782E+00  0.2029E+02  0.2029E+02
     10.026  0.1087E+01  0.1089E+01  0.2044E+02  0.2044E+02
     10.158  0.1264E+01  0.1264E+01  0.2060E+02  0.2060E+02
     10.290  0.1303E+01  0.1303E+01  0.2078E+02  0.2078E+02
     10.422  0.1490E+01  0.1490E+01  0.2097E+02  0.2097E+02
     10.554  0.1810E+01  0.1811E+01  0.2121E+02  0.2121E+02
     10.686  0.2115E+01  0.2115E+01  0.2149E+02  0.2149E+02
     10.818  0.2265E+01  0.2267E+01  0.2179E+02  0.2179E+02
     10.951  0.2507E+01  0.2507E+01  0.2212E+02  0.2212E+02
     11.083  0.3042E+01  0.3042E+01  0.2252E+02  0.2253E+02
     11.215  0.3158E+01  0.3153E+01  0.2294E+02  0.2294E+02
     11.347  0.3019E+01  0.3013E+01  0.2334E+02  0.2334E+02
     11.479  0.2357E+01  0.2357E+01  0.2365E+02  0.2365E+02
     11.611  0.2163E+01  0.2167E+01  0.2394E+02  0.2394E+02
     11.743  0.2189E+01  0.2192E+01  0.2423E+02  0.2423E+02
     11.875  0.2362E+01  0.2363E+01  0.2454E+02  0.2454E+02
     12.007  0.2676E+01  0.2675E+01  0.2490E+02  0.2490E+02
     12.139  0.2994E+01  0.2997E+01  0.2529E+02  0.2529E+02
     12.271  0.2481E+01  0.2483E+01  0.2562E+02  0.2562E+02
     12.403  0.1608E+01  0.1608E+01  0.2583E+02  0.2584E+02
     12.536  0.1363E+01  0.1362E+01  0.2601E+02  0.2602E+02
     12.668  0.9640E+00  0.9607E+00  0.2614E+02  0.2614E+02
     12.800  0.8924E+00  0.8937E+00  0.2626E+02  0.2626E+02
     12.932  0.1399E+01  0.1403E+01  0.2645E+02  0.2645E+02
     13.064  0.1712E+01  0.1710E+01  0.2667E+02  0.2667E+02
     13.196  0.1362E+01  0.1359E+01  0.2685E+02  0.2685E+02
     13.328  0.1514E+01  0.1517E+01  0.2705E+02  0.2705E+02
     13.460  0.1595E+01  0.1596E+01  0.2726E+02  0.2727E+02
     13.592  0.1640E+01  0.1664E+01  0.2748E+02  0.2749E+02
     13.724  0.1314E+01  0.1336E+01  0.2765E+02  0.2766E+02
     13.856  0.7346E+00  0.6967E+00  0.2775E+02  0.2775E+02
     13.989  0.5043E+00  0.4936E+00  0.2782E+02  0.2782E+02
     14.121  0.5289E+00  0.5317E+00  0.2789E+02  0.2789E+02
     14.253  0.3699E+00  0.3946E+00  0.2794E+02  0.2794E+02
     14.385  0.2525E+00  0.2549E+00  0.2797E+02  0.2798E+02
     14.517  0.1273E+00  0.1011E+00  0.2799E+02  0.2799E+02
     14.649  0.5089E-01  0.4280E-01  0.2800E+02  0.2800E+02
     14.781  0.1545E-01  0.1374E-01  0.2800E+02  0.2800E+02
     14.913  0.1666E-01  0.1507E-01  0.2800E+02  0.2800E+02
     15.045  0.3714E-02  0.3717E-02  0.2800E+02  0.2800E+02
     15.177  0.2892E-03  0.3109E-03  0.2800E+02  0.2800E+02
     15.309  0.0000E+00  0.0000E+00  0.2800E+02  0.2800E+02
     15.441  0.0000E+00  0.0000E+00  0.2800E+02  0.2800E+02
     15.574  0.0000E+00  0.0000E+00  0.2800E+02  0.2800E+02
     15.706  0.0000E+00  0.0000E+00  0.2800E+02  0.2800E+02
     15.838  0.0000E+00  0.0000E+00  0.2800E+02  0.2800E+02
     15.970  0.0000E+00  0.0000E+00  0.2800E+02  0.2800E+02
     16.102  0.0000E+00  0.0000E+00  0.2800E+02  0.2800E+02
     16.234  0.0000E+00  0.0000E+00  0.2800E+02  0.2800E+02
     16.366  0.0000E+00  0.0000E+00  0.2800E+02  0.2800E+02
     16.498  0.0000E+00  0.0000E+00  0.2800E+02  0.2800E+02
     16.630  0.0000E+00  0.0000E+00  0.2800E+02  0.2800E+02
     16.63018410    -22.99501835  301      8.64748056      1.00000000
    -22.995  0.0000E+00  0.0000E+00  0.0000E+00  0.0000E+00  0.0000E+00  0.0000E+00  0.0000E+00  0.0000E+00  0.0000E+00  0.0000E+00  0.0000E+00  0.0000E+00  0.0000E+00  0.0000E+00  0.0000E+00  0.0000E+00  0.0000E+00  0.0000E+00
    -22.863  0.0000E+00  0.0000E+00  0.0000E+00  0.0000E+00  0.0000E+00  0.0000E+00  0.0000E+00  0.0000E+00  0.0000E+00  0.0000E+00  0.0000E+00  0.0000E+00  0.0000E+00  0.0000E+00  0.0000E+00  0.0000E+00  0.0000E+00  0.0000E+00
    -22.731  0.0000E+00  0.0000E+00  0.0000E+00  0.0000E+00  0.0000E+00  0.0000E+00  0.0000E+00  0.0000E+00  0.0000E+00  0.0000E+00  0.0000E+00  0.0000E+00  0.0000E+00  0.0000E+00  0.0000E+00  0.0000E+00  0.0000E+00  0.0000E+00
    -22.599  0.0000E+00  0.0000E+00  0.0000E+00  0.0000E+00  0.0000E+00  0.0000E+00  0.0000E+00  0.0000E+00  0.0000E+00  0.0000E+00  0.0000E+00  0.0000E+00  0.0000E+00  0.0000E+00  0.0000E+00  0.0000E+00  0.0000E+00  0.0000E+00
    -22.467  0.0000E+00  0.0000E+00  0.0000E+00  0.0000E+00  0.0000E+00  0.0000E+00  0.0000E+00  0.0000E+00  0.0000E+00  0.0000E+00  0.0000E+00  0.0000E+00  0.0000E+00  0.0000E+00  0.0000E+00  0.0000E+00  0.0000E+00  0.0000E+00
    -22.335  0.0000E+00  0.0000E+00  0.0000E+00  0.0000E+00  0.0000E+00  0.0000E+00  0.0000E+00  0.0000E+00  0.0000E+00  0.0000E+00  0.0000E+00  0.0000E+00  0.0000E+00  0.0000E+00  0.0000E+00  0.0000E+00  0.0000E+00  0.0000E+00
    -22.203  0.0000E+00  0.0000E+00  0.0000E+00  0.0000E+00  0.0000E+00  0.0000E+00  0.0000E+00  0.0000E+00  0.0000E+00  0.0000E+00  0.0000E+00  0.0000E+00  0.0000E+00  0.0000E+00  0.0000E+00  0.0000E+00  0.0000E+00  0.0000E+00
    -22.070  0.0000E+00  0.0000E+00  0.0000E+00  0.0000E+00  0.0000E+00  0.0000E+00  0.0000E+00  0.0000E+00  0.0000E+00  0.0000E+00  0.0000E+00  0.0000E+00  0.0000E+00  0.0000E+00  0.0000E+00  0.0000E+00  0.0000E+00  0.0000E+00
    -21.938  0.0000E+00  0.0000E+00  0.0000E+00  0.0000E+00  0.0000E+00  0.0000E+00  0.0000E+00  0.0000E+00  0.0000E+00  0.0000E+00  0.0000E+00  0.0000E+00  0.0000E+00  0.0000E+00  0.0000E+00  0.0000E+00  0.0000E+00  0.0000E+00
    -21.806  0.0000E+00  0.0000E+00  0.0000E+00  0.0000E+00  0.0000E+00  0.0000E+00  0.0000E+00  0.0000E+00  0.0000E+00  0.0000E+00  0.0000E+00  0.0000E+00  0.0000E+00  0.0000E+00  0.0000E+00  0.0000E+00  0.0000E+00  0.0000E+00
    -21.674  0.7493E-09  0.7769E-09  0.1802E-03  0.1859E-03  0.2030E-06  0.2058E-06  0.1802E-03  0.1859E-03  0.6232E-10  0.6408E-10  0.5650E-11  0.5867E-11  0.2889E-09  0.2992E-09  0.5650E-11  0.5867E-11  0.7619E-09  0.8033E-09
    -21.542  0.1283E-07  0.1308E-07  0.3098E-02  0.3158E-02  0.3001E-03  0.3009E-03  0.3098E-02  0.3158E-02  0.9369E-09  0.9543E-09  0.1407E-09  0.1423E-09  0.4954E-08  0.5048E-08  0.1407E-09  0.1423E-09  0.1414E-07  0.1439E-07
    -21.410  0.1759E-06  0.1794E-06  0.4240E-01  0.4323E-01  0.3912E-02  0.3923E-02  0.4240E-01  0.4323E-01  0.1291E-07  0.1316E-07  0.1898E-08  0.1921E-08  0.6788E-07  0.6923E-07  0.1898E-08  0.1921E-08  0.1930E-06  0.1968E-06
    -21.278  0.2255E-05  0.2296E-05  0.5362E+00  0.5457E+00  0.5442E-01  0.5457E-01  0.5362E+00  0.5457E+00  0.1617E-06  0.1644E-06  0.2479E-07  0.2505E-07  0.8706E-06  0.8863E-06  0.2479E-07  0.2505E-07  0.2482E-05  0.2526E-05
    -21.146  0.1425E-04  0.1436E-04  0.3204E+01  0.3227E+01  0.6833E+00  0.6848E+00  0.3204E+01  0.3227E+01  0.8969E-06  0.9020E-06  0.2070E-06  0.2076E-06  0.5514E-05  0.5557E-05  0.2070E-06  0.2076E-06  0.1599E-04  0.1611E-04
    -21.014  0.1367E-04  0.1355E-04  0.3098E+01  0.3074E+01  0.3758E+01  0.3761E+01  0.3098E+01  0.3074E+01  0.7714E-06  0.7645E-06  0.7305E-06  0.7300E-06  0.5313E-05  0.5270E-05  0.7305E-06  0.7300E-06  0.1561E-04  0.1548E-04
    -20.882  0.2145E-05  0.2109E-05  0.4955E+00  0.4867E+00  0.2589E+01  0.2585E+01  0.4955E+00  0.4867E+00  0.1345E-06  0.1325E-06  0.4450E-06  0.4441E-06  0.8452E-06  0.8310E-06  0.4450E-06  0.4441E-06  0.2347E-05  0.2305E-05
    -20.750  0.1296E-06  0.1268E-06  0.2984E-01  0.2918E-01  0.3049E+00  0.3041E+00  0.2984E-01  0.2918E-01  0.8617E-08  0.8504E-08  0.5057E-07  0.5042E-07  0.5195E-07  0.5067E-07  0.5057E-07  0.5042E-07  0.1355E-06  0.1321E-06
    -20.618  0.0000E+00  0.0000E+00  0.0000E+00  0.0000E+00  0.0000E+00  0.0000E+00  0.0000E+00  0.0000E+00  0.0000E+00  0.0000E+00  0.0000E+00  0.0000E+00  0.0000E+00  0.0000E+00  0.0000E+00  0.0000E+00  0.0000E+00  0.0000E+00
    -20.485  0.0000E+00  0.0000E+00  0.0000E+00  0.0000E+00  0.0000E+00  0.0000E+00  0.0000E+00  0.0000E+00  0.0000E+00  0.0000E+00  0.0000E+00  0.0000E+00  0.0000E+00  0.0000E+00  0.0000E+00  0.0000E+00  0.0000E+00  0.0000E+00
    -20.353  0.0000E+00  0.0000E+00  0.0000E+00  0.0000E+00  0.0000E+00  0.0000E+00  0.0000E+00  0.0000E+00  0.0000E+00  0.0000E+00  0.0000E+00  0.0000E+00  0.0000E+00  0.0000E+00  0.0000E+00  0.0000E+00  0.0000E+00  0.0000E+00
    -20.221  0.0000E+00  0.0000E+00  0.0000E+00  0.0000E+00  0.0000E+00  0.0000E+00  0.0000E+00  0.0000E+00  0.0000E+00  0.0000E+00  0.0000E+00  0.0000E+00  0.0000E+00  0.0000E+00  0.0000E+00  0.0000E+00  0.0000E+00  0.0000E+00
    -20.089  0.0000E+00  0.0000E+00  0.0000E+00  0.0000E+00  0.0000E+00  0.0000E+00  0.0000E+00  0.0000E+00  0.0000E+00  0.0000E+00  0.0000E+00  0.0000E+00  0.0000E+00  0.0000E+00  0.0000E+00  0.0000E+00  0.0000E+00  0.0000E+00
    -19.957  0.0000E+00  0.0000E+00  0.0000E+00  0.0000E+00  0.0000E+00  0.0000E+00  0.0000E+00  0.0000E+00  0.0000E+00  0.0000E+00  0.0000E+00  0.0000E+00  0.0000E+00  0.0000E+00  0.0000E+00  0.0000E+00  0.0000E+00  0.0000E+00
    -19.825  0.0000E+00  0.0000E+00  0.0000E+00  0.0000E+00  0.0000E+00  0.0000E+00  0.0000E+00  0.0000E+00  0.0000E+00  0.0000E+00  0.0000E+00  0.0000E+00  0.0000E+00  0.0000E+00  0.0000E+00  0.0000E+00  0.0000E+00  0.0000E+00
    -19.693  0.0000E+00  0.0000E+00  0.0000E+00  0.0000E+00  0.0000E+00  0.0000E+00  0.0000E+00  0.0000E+00  0.0000E+00  0.0000E+00  0.0000E+00  0.0000E+00  0.0000E+00  0.0000E+00  0.0000E+00  0.0000E+00  0.0000E+00  0.0000E+00
    -19.561  0.0000E+00  0.0000E+00  0.0000E+00  0.0000E+00  0.0000E+00  0.0000E+00  0.0000E+00  0.0000E+00  0.0000E+00  0.0000E+00  0.0000E+00  0.0000E+00  0.0000E+00  0.0000E+00  0.0000E+00  0.0000E+00  0.0000E+00  0.0000E+00
    -19.429  0.0000E+00  0.0000E+00  0.0000E+00  0.0000E+00  0.0000E+00  0.0000E+00  0.0000E+00  0.0000E+00  0.0000E+00  0.0000E+00  0.0000E+00  0.0000E+00  0.0000E+00  0.0000E+00  0.0000E+00  0.0000E+00  0.0000E+00  0.0000E+00
    -19.297  0.0000E+00  0.0000E+00  0.0000E+00  0.0000E+00  0.0000E+00  0.0000E+00  0.0000E+00  0.0000E+00  0.0000E+00  0.0000E+00  0.0000E+00  0.0000E+00  0.0000E+00  0.0000E+00  0.0000E+00  0.0000E+00  0.0000E+00  0.0000E+00
    -19.165  0.0000E+00  0.0000E+00  0.0000E+00  0.0000E+00  0.0000E+00  0.0000E+00  0.0000E+00  0.0000E+00  0.0000E+00  0.0000E+00  0.0000E+00  0.0000E+00  0.0000E+00  0.0000E+00  0.0000E+00  0.0000E+00  0.0000E+00  0.0000E+00
    -19.032  0.0000E+00  0.0000E+00  0.0000E+00  0.0000E+00  0.0000E+00  0.0000E+00  0.0000E+00  0.0000E+00  0.0000E+00  0.0000E+00  0.0000E+00  0.0000E+00  0.0000E+00  0.0000E+00  0.0000E+00  0.0000E+00  0.0000E+00  0.0000E+00
    -18.900  0.0000E+00  0.0000E+00  0.0000E+00  0.0000E+00  0.0000E+00  0.0000E+00  0.0000E+00  0.0000E+00  0.0000E+00  0.0000E+00  0.0000E+00  0.0000E+00  0.0000E+00  0.0000E+00  0.0000E+00  0.0000E+00  0.0000E+00  0.0000E+00
    -18.768  0.0000E+00  0.0000E+00  0.0000E+00  0.0000E+00  0.0000E+00  0.0000E+00  0.0000E+00  0.0000E+00  0.0000E+00  0.0000E+00  0.0000E+00  0.0000E+00  0.0000E+00  0.0000E+00  0.0000E+00  0.0000E+00  0.0000E+00  0.0000E+00
    -18.636  0.0000E+00  0.0000E+00  0.0000E+00  0.0000E+00  0.0000E+00  0.0000E+00  0.0000E+00  0.0000E+00  0.0000E+00  0.0000E+00  0.0000E+00  0.0000E+00  0.0000E+00  0.0000E+00  0.0000E+00  0.0000E+00  0.0000E+00  0.0000E+00
    -18.504  0.0000E+00  0.0000E+00  0.0000E+00  0.0000E+00  0.0000E+00  0.0000E+00  0.0000E+00  0.0000E+00  0.0000E+00  0.0000E+00  0.0000E+00  0.0000E+00  0.0000E+00  0.0000E+00  0.0000E+00  0.0000E+00  0.0000E+00  0.0000E+00
    -18.372  0.0000E+00  0.0000E+00  0.0000E+00  0.0000E+00  0.0000E+00  0.0000E+00  0.0000E+00  0.0000E+00  0.0000E+00  0.0000E+00  0.0000E+00  0.0000E+00  0.0000E+00  0.0000E+00  0.0000E+00  0.0000E+00  0.0000E+00  0.0000E+00
    -18.240  0.0000E+00  0.0000E+00  0.0000E+00  0.0000E+00  0.0000E+00  0.0000E+00  0.0000E+00  0.0000E+00  0.0000E+00  0.0000E+00  0.0000E+00  0.0000E+00  0.0000E+00  0.0000E+00  0.0000E+00  0.0000E+00  0.0000E+00  0.0000E+00
    -18.108  0.0000E+00  0.0000E+00  0.0000E+00  0.0000E+00  0.0000E+00  0.0000E+00  0.0000E+00  0.0000E+00  0.0000E+00  0.0000E+00  0.0000E+00  0.0000E+00  0.0000E+00  0.0000E+00  0.0000E+00  0.0000E+00  0.0000E+00  0.0000E+00
    -17.976  0.0000E+00  0.0000E+00  0.0000E+00  0.0000E+00  0.0000E+00  0.0000E+00  0.0000E+00  0.0000E+00  0.0000E+00  0.0000E+00  0.0000E+00  0.0000E+00  0.0000E+00  0.0000E+00  0.0000E+00  0.0000E+00  0.0000E+00  0.0000E+00
    -17.844  0.0000E+00  0.0000E+00  0.0000E+00  0.0000E+00  0.0000E+00  0.0000E+00  0.0000E+00  0.0000E+00  0.0000E+00  0.0000E+00  0.0000E+00  0.0000E+00  0.0000E+00  0.0000E+00  0.0000E+00  0.0000E+00  0.0000E+00  0.0000E+00
    -17.712  0.0000E+00  0.0000E+00  0.0000E+00  0.0000E+00  0.0000E+00  0.0000E+00  0.0000E+00  0.0000E+00  0.0000E+00  0.0000E+00  0.0000E+00  0.0000E+00  0.0000E+00  0.0000E+00  0.0000E+00  0.0000E+00  0.0000E+00  0.0000E+00
    -17.580  0.0000E+00  0.0000E+00  0.0000E+00  0.0000E+00  0.0000E+00  0.0000E+00  0.0000E+00  0.0000E+00  0.0000E+00  0.0000E+00  0.0000E+00  0.0000E+00  0.0000E+00  0.0000E+00  0.0000E+00  0.0000E+00  0.0000E+00  0.0000E+00
    -17.447  0.0000E+00  0.0000E+00  0.0000E+00  0.0000E+00  0.0000E+00  0.0000E+00  0.0000E+00  0.0000E+00  0.0000E+00  0.0000E+00  0.0000E+00  0.0000E+00  0.0000E+00  0.0000E+00  0.0000E+00  0.0000E+00  0.0000E+00  0.0000E+00
    -17.315  0.0000E+00  0.0000E+00  0.0000E+00  0.0000E+00  0.0000E+00  0.0000E+00  0.0000E+00  0.0000E+00  0.0000E+00  0.0000E+00  0.0000E+00  0.0000E+00  0.0000E+00  0.0000E+00  0.0000E+00  0.0000E+00  0.0000E+00  0.0000E+00
    -17.183  0.0000E+00  0.0000E+00  0.0000E+00  0.0000E+00  0.0000E+00  0.0000E+00  0.0000E+00  0.0000E+00  0.0000E+00  0.0000E+00  0.0000E+00  0.0000E+00  0.0000E+00  0.0000E+00  0.0000E+00  0.0000E+00  0.0000E+00  0.0000E+00
    -17.051  0.0000E+00  0.0000E+00  0.0000E+00  0.0000E+00  0.0000E+00  0.0000E+00  0.0000E+00  0.0000E+00  0.0000E+00  0.0000E+00  0.0000E+00  0.0000E+00  0.0000E+00  0.0000E+00  0.0000E+00  0.0000E+00  0.0000E+00  0.0000E+00
    -16.919  0.0000E+00  0.0000E+00  0.0000E+00  0.0000E+00  0.0000E+00  0.0000E+00  0.0000E+00  0.0000E+00  0.0000E+00  0.0000E+00  0.0000E+00  0.0000E+00  0.0000E+00  0.0000E+00  0.0000E+00  0.0000E+00  0.0000E+00  0.0000E+00
    -16.787  0.0000E+00  0.0000E+00  0.0000E+00  0.0000E+00  0.0000E+00  0.0000E+00  0.0000E+00  0.0000E+00  0.0000E+00  0.0000E+00  0.0000E+00  0.0000E+00  0.0000E+00  0.0000E+00  0.0000E+00  0.0000E+00  0.0000E+00  0.0000E+00
    -16.655  0.0000E+00  0.0000E+00  0.0000E+00  0.0000E+00  0.0000E+00  0.0000E+00  0.0000E+00  0.0000E+00  0.0000E+00  0.0000E+00  0.0000E+00  0.0000E+00  0.0000E+00  0.0000E+00  0.0000E+00  0.0000E+00  0.0000E+00  0.0000E+00
    -16.523  0.0000E+00  0.0000E+00  0.0000E+00  0.0000E+00  0.0000E+00  0.0000E+00  0.0000E+00  0.0000E+00  0.0000E+00  0.0000E+00  0.0000E+00  0.0000E+00  0.0000E+00  0.0000E+00  0.0000E+00  0.0000E+00  0.0000E+00  0.0000E+00
    -16.391  0.0000E+00  0.0000E+00  0.0000E+00  0.0000E+00  0.0000E+00  0.0000E+00  0.0000E+00  0.0000E+00  0.0000E+00  0.0000E+00  0.0000E+00  0.0000E+00  0.0000E+00  0.0000E+00  0.0000E+00  0.0000E+00  0.0000E+00  0.0000E+00