   8   8   1   0
  0.1543623E+02  0.3952457E-09  0.3952457E-09  0.7904914E-09  0.5000000E-15
  1.000000000000000E-004
  CAR 
 unknown system                          
     15.66262957    -23.75631787  301      8.03449959      1.00000000
    -23.756  0.0000E+00  0.0000E+00  0.0000E+00  0.0000E+00
    -23.625  0.0000E+00  0.0000E+00  0.0000E+00  0.0000E+00
    -23.494  0.0000E+00  0.0000E+00  0.0000E+00  0.0000E+00
    -23.362  0.0000E+00  0.0000E+00  0.0000E+00  0.0000E+00
    -23.231  0.0000E+00  0.0000E+00  0.0000E+00  0.0000E+00
    -23.099  0.0000E+00  0.0000E+00  0.0000E+00  0.0000E+00
    -22.968  0.0000E+00  0.0000E+00  0.0000E+00  0.0000E+00
    -22.837  0.0000E+00  0.0000E+00  0.0000E+00  0.0000E+00
    -22.705  0.0000E+00  0.0000E+00  0.0000E+00  0.0000E+00
    -22.574  0.0000E+00  0.0000E+00  0.0000E+00  0.0000E+00
    -22.442  0.1060E-02  0.1032E-02  0.1393E-03  0.1356E-03
    -22.311  0.1633E-01  0.1619E-01  0.2286E-02  0.2263E-02
    -22.180  0.2215E+00  0.2194E+00  0.3140E-01  0.3109E-01
    -22.048  0.2749E+01  0.2725E+01  0.3926E+00  0.3891E+00
    -21.917  0.1597E+02  0.1591E+02  0.2491E+01  0.2480E+01
    -21.785  0.1938E+02  0.1942E+02  0.5038E+01  0.5031E+01
    -21.654  0.6572E+01  0.6618E+01  0.5901E+01  0.5900E+01
    -21.523  0.6425E+00  0.6490E+00  0.5993E+01  0.5993E+01
    -21.391  0.0000E+00  0.0000E+00  0.6000E+01  0.6000E+01
    -21.260  0.0000E+00  0.0000E+00  0.6000E+01  0.6000E+01
    -21.128  0.0000E+00  0.0000E+00  0.6000E+01  0.6000E+01
    -20.997  0.0000E+00  0.0000E+00  0.6000E+01  0.6000E+01
    -20.866  0.0000E+00  0.0000E+00  0.6000E+01  0.6000E+01
    -20.734  0.0000E+00  0.0000E+00  0.6000E+01  0.6000E+01
    -20.603  0.0000E+00  0.0000E+00  0.6000E+01  0.6000E+01
    -20.471  0.0000E+00  0.0000E+00  0.6000E+01  0.6000E+01
    -20.340  0.0000E+00  0.0000E+00  0.6000E+01  0.6000E+01
    -20.209  0.0000E+00  0.0000E+00  0.6000E+01  0.6000E+01
    -20.077  0.0000E+00  0.0000E+00  0.6000E+01  0.6000E+01
    -19.946  0.0000E+00  0.0000E+00  0.6000E+01  0.6000E+01
    -19.814  0.0000E+00  0.0000E+00  0.6000E+01  0.6000E+01
    -19.683  0.0000E+00  0.0000E+00  0.6000E+01  0.6000E+01
    -19.552  0.0000E+00  0.0000E+00  0.6000E+01  0.6000E+01
    -19.420  0.0000E+00  0.0000E+00  0.6000E+01  0.6000E+01
    -19.289  0.0000E+00  0.0000E+00  0.6000E+01  0.6000E+01
    -19.157  0.0000E+00  0.0000E+00  0.6000E+01  0.6000E+01
    -19.026  0.0000E+00  0.0000E+00  0.6000E+01  0.6000E+01
    -18.895  0.0000E+00  0.0000E+00  0.6000E+01  0.6000E+01
    -18.763  0.0000E+00  0.0000E+00  0.6000E+01  0.6000E+01
    -18.632  0.0000E+00  0.0000E+00  0.6000E+01  0.6000E+01
    -18.500  0.0000E+00  0.0000E+00  0.6000E+01  0.6000E+01
    -18.369  0.0000E+00  0.0000E+00  0.6000E+01  0.6000E+01
    -18.238  0.0000E+00  0.0000E+00  0.6000E+01  0.6000E+01
    -18.106  0.0000E+00  0.0000E+00  0.6000E+01  0.6000E+01
    -17.975  0.0000E+00  0.0000E+00  0.6000E+01  0.6000E+01
    -17.843  0.0000E+00  0.0000E+00  0.6000E+01  0.6000E+01
    -17.712  0.0000E+00  0.0000E+00  0.6000E+01  0.6000E+01
    -17.581  0.0000E+00  0.0000E+00  0.6000E+01  0.6000E+01
    -17.449  0.0000E+00  0.0000E+00  0.6000E+01  0.6000E+01
    -17.318  0.0000E+00  0.0000E+00  0.6000E+01  0.6000E+01
    -17.186  0.0000E+00  0.0000E+00  0.6000E+01  0.6000E+01
    -17.055  0.0000E+00  0.0000E+00  0.6000E+01  0.6000E+01
    -16.924  0.0000E+00  0.0000E+00  0.6000E+01  0.6000E+01
    -16.792  0.0000E+00  0.0000E+00  0.6000E+01  0.6000E+01
    -16.661  0.0000E+00  0.0000E+00  0.6000E+01  0.6000E+01
    -16.530  0.0000E+00  0.0000E+00  0.6000E+01  0.6000E+01
    -16.398  0.0000E+00  0.0000E+00  0.6000E+01  0.6000E+01
    -16.267  0.0000E+00  0.0000E+00  0.6000E+01  0.6000E+01
    -16.135  0.0000E+00  0.0000E+00  0.6000E+01  0.6000E+01
    -16.004  0.0000E+00  0.0000E+00  0.6000E+01  0.6000E+01
    -15.873  0.0000E+00  0.0000E+00  0.6000E+01  0.6000E+01
    -15.741  0.0000E+00  0.0000E+00  0.6000E+01  0.6000E+01
    -15.610  0.0000E+00  0.0000E+00  0.6000E+01  0.6000E+01
    -15.478  0.0000E+00  0.0000E+00  0.6000E+01  0.6000E+01
    -15.347  0.0000E+00  0.0000E+00  0.6000E+01  0.6000E+01
    -15.216  0.0000E+00  0.0000E+00  0.6000E+01  0.6000E+01
    -15.084  0.0000E+00  0.0000E+00  0.6000E+01  0.6000E+01
    -14.953  0.0000E+00  0.0000E+00  0.6000E+01  0.6000E+01
    -14.821  0.0000E+00  0.0000E+00  0.6000E+01  0.6000E+01
    -14.690  0.0000E+00  0.0000E+00  0.6000E+01  0.6000E+01
    -14.559  0.0000E+00  0.0000E+00  0.6000E+01  0.6000E+01
    -14.427  0.0000E+00  0.0000E+00  0.6000E+01  0.6000E+01
    -14.296  0.0000E+00  0.0000E+00  0.6000E+01  0.6000E+01
    -14.164  0.0000E+00  0.0000E+00  0.6000E+01  0.6000E+01
    -14.033  0.0000E+00  0.0000E+00  0.6000E+01  0.6000E+01
    -13.902  0.0000E+00  0.0000E+00  0.6000E+01  0.6000E+01
    -13.770  0.0000E+00  0.0000E+00  0.6000E+01  0.6000E+01
    -13.639  0.0000E+00  0.0000E+00  0.6000E+01  0.6000E+01
    -13.507  0.0000E+00  0.0000E+00  0.6000E+01  0.6000E+01
    -13.376  0.0000E+00  0.0000E+00  0.6000E+01  0.6000E+01
    -13.245  0.0000E+00  0.0000E+00  0.6000E+01  0.6000E+01
    -13.113  0.0000E+00  0.0000E+00  0.6000E+01  0.6000E+01
    -12.982  0.0000E+00  0.0000E+00  0.6000E+01  0.6000E+01
    -12.850  0.0000E+00  0.0000E+00  0.6000E+01  0.6000E+01
    -12.719  0.0000E+00  0.0000E+00  0.6000E+01  0.6000E+01
    -12.588  0.0000E+00  0.0000E+00  0.6000E+01  0.6000E+01
    -12.456  0.0000E+00  0.0000E+00  0.6000E+01  0.6000E+01
    -12.325  0.0000E+00  0.0000E+00  0.6000E+01  0.6000E+01
    -12.193  0.0000E+00  0.0000E+00  0.6000E+01  0.6000E+01
    -12.062  0.0000E+00  0.0000E+00  0.6000E+01  0.6000E+01
    -11.931  0.0000E+00  0.0000E+00  0.6000E+01  0.6000E+01
    -11.799  0.0000E+00  0.0000E+00  0.6000E+01  0.6000E+01
    -11.668  0.0000E+00  0.0000E+00  0.6000E+01  0.6000E+01
    -11.536  0.0000E+00  0.0000E+00  0.6000E+01  0.6000E+01
    -11.405  0.0000E+00  0.0000E+00  0.6000E+01  0.6000E+01
    -11.274  0.0000E+00  0.0000E+00  0.6000E+01  0.6000E+01
    -11.142  0.0000E+00  0.0000E+00  0.6000E+01  0.6000E+01
    -11.011  0.0000E+00  0.0000E+00  0.6000E+01  0.6000E+01
    -10.879  0.0000E+00  0.0000E+00  0.6000E+01  0.6000E+01
    -10.748  0.0000E+00  0.0000E+00  0.6000E+01  0.6000E+01
    -10.617  0.0000E+00  0.0000E+00  0.6000E+01  0.6000E+01
    -10.485  0.0000E+00  0.0000E+00  0.6000E+01  0.6000E+01
    -10.354  0.0000E+00  0.0000E+00  0.6000E+01  0.6000E+01
    -10.222  0.0000E+00  0.0000E+00  0.6000E+01  0.6000E+01
    -10.091  0.0000E+00  0.0000E+00  0.6000E+01  0.6000E+01
     -9.960  0.0000E+00  0.0000E+00  0.6000E+01  0.6000E+01
     -9.828  0.0000E+00  0.0000E+00  0.6000E+01  0.6000E+01
     -9.697  0.0000E+00  0.0000E+00  0.6000E+01  0.6000E+01
     -9.565  0.0000E+00  0.0000E+00  0.6000E+01  0.6000E+01
     -9.434  0.0000E+00  0.0000E+00  0.6000E+01  0.6000E+01
     -9.303  0.0000E+00  0.0000E+00  0.6000E+01  0.6000E+01
     -9.171  0.0000E+00  0.0000E+00  0.6000E+01  0.6000E+01
     -9.040  0.0000E+00  0.0000E+00  0.6000E+01  0.6000E+01
     -8.909  0.0000E+00  0.0000E+00  0.6000E+01  0.6000E+01
     -8.777  0.0000E+00  0.0000E+00  0.6000E+01  0.6000E+01
     -8.646  0.0000E+00  0.0000E+00  0.6000E+01  0.6000E+01
     -8.514  0.0000E+00  0.0000E+00  0.6000E+01  0.6000E+01
     -8.383  0.0000E+00  0.0000E+00  0.6000E+01  0.6000E+01
     -8.252  0.0000E+00  0.0000E+00  0.6000E+01  0.6000E+01
     -8.120  0.0000E+00  0.0000E+00  0.6000E+01  0.6000E+01
     -7.989  0.0000E+00  0.0000E+00  0.6000E+01  0.6000E+01
     -7.857  0.0000E+00  0.0000E+00  0.6000E+01  0.6000E+01
     -7.726  0.0000E+00  0.0000E+00  0.6000E+01  0.6000E+01
     -7.595  0.0000E+00  0.0000E+00  0.6000E+01  0.6000E+01
     -7.463  0.0000E+00  0.0000E+00  0.6000E+01  0.6000E+01
     -7.332  0.0000E+00  0.0000E+00  0.6000E+01  0.6000E+01
     -7.200  0.0000E+00  0.0000E+00  0.6000E+01  0.6000E+01
     -7.069  0.0000E+00  0.0000E+00  0.6000E+01  0.6000E+01
     -6.938  0.0000E+00  0.0000E+00  0.6000E+01  0.6000E+01
     -6.806  0.0000E+00  0.0000E+00  0.6000E+01  0.6000E+01
     -6.675  0.0000E+00  0.0000E+00  0.6000E+01  0.6000E+01
     -6.543  0.0000E+00  0.0000E+00  0.6000E+01  0.6000E+01
     -6.412  0.0000E+00  0.0000E+00  0.6000E+01  0.6000E+01
     -6.281  0.0000E+00  0.0000E+00  0.6000E+01  0.6000E+01
     -6.149  0.0000E+00  0.0000E+00  0.6000E+01  0.6000E+01
     -6.018  0.0000E+00  0.0000E+00  0.6000E+01  0.6000E+01
     -5.886  0.0000E+00  0.0000E+00  0.6000E+01  0.6000E+01
     -5.755  0.0000E+00  0.0000E+00  0.6000E+01  0.6000E+01
     -5.624  0.0000E+00  0.0000E+00  0.6000E+01  0.6000E+01
     -5.492  0.0000E+00  0.0000E+00  0.6000E+01  0.6000E+01
     -5.361  0.0000E+00  0.0000E+00  0.6000E+01  0.6000E+01
     -5.229  0.0000E+00  0.0000E+00  0.6000E+01  0.6000E+01
     -5.098  0.0000E+00  0.0000E+00  0.6000E+01  0.6000E+01
     -4.967  0.0000E+00  0.0000E+00  0.6000E+01  0.6000E+01
     -4.835  0.0000E+00  0.0000E+00  0.6000E+01  0.6000E+01
     -4.704  0.0000E+00  0.0000E+00  0.6000E+01  0.6000E+01
     -4.572  0.0000E+00  0.0000E+00  0.6000E+01  0.6000E+01
     -4.441  0.0000E+00  0.0000E+00  0.6000E+01  0.6000E+01
     -4.310  0.0000E+00  0.0000E+00  0.6000E+01  0.6000E+01
     -4.178  0.0000E+00  0.0000E+00  0.6000E+01  0.6000E+01
     -4.047  0.0000E+00  0.0000E+00  0.6000E+01  0.6000E+01
     -3.915  0.0000E+00  0.0000E+00  0.6000E+01  0.6000E+01
     -3.784  0.0000E+00  0.0000E+00  0.6000E+01  0.6000E+01
     -3.653  0.0000E+00  0.0000E+00  0.6000E+01  0.6000E+01
     -3.521  0.0000E+00  0.0000E+00  0.6000E+01  0.6000E+01
     -3.390  0.0000E+00  0.0000E+00  0.6000E+01  0.6000E+01
     -3.258  0.0000E+00  0.0000E+00  0.6000E+01  0.6000E+01
     -3.127  0.0000E+00  0.0000E+00  0.6000E+01  0.6000E+01
     -2.996  0.7106E-05  0.7098E-05  0.6000E+01  0.6000E+01
     -2.864  0.1056E-03  0.1054E-03  0.6000E+01  0.6000E+01
     -2.733  0.1447E-02  0.1445E-02  0.6000E+01  0.6000E+01
     -2.601  0.1574E-01  0.1572E-01  0.6002E+01  0.6002E+01
     -2.470  0.7581E-01  0.7578E-01  0.6012E+01  0.6012E+01
     -2.339  0.1384E+00  0.1384E+00  0.6030E+01  0.6030E+01
     -2.207  0.2089E+00  0.2089E+00  0.6058E+01  0.6058E+01
     -2.076  0.2123E+00  0.2123E+00  0.6086E+01  0.6086E+01
     -1.945  0.2889E+00  0.2889E+00  0.6124E+01  0.6124E+01
     -1.813  0.3015E+00  0.3014E+00  0.6163E+01  0.6163E+01
     -1.682  0.3327E+00  0.3327E+00  0.6207E+01  0.6207E+01
     -1.550  0.3324E+00  0.3323E+00  0.6251E+01  0.6251E+01
     -1.419  0.4385E+00  0.4385E+00  0.6309E+01  0.6309E+01
     -1.288  0.4187E+00  0.4187E+00  0.6364E+01  0.6364E+01
     -1.156  0.4004E+00  0.4004E+00  0.6416E+01  0.6416E+01
     -1.025  0.4701E+00  0.4700E+00  0.6478E+01  0.6478E+01
     -0.893  0.5498E+00  0.5498E+00  0.6551E+01  0.6550E+01
     -0.762  0.5057E+00  0.5057E+00  0.6617E+01  0.6617E+01
     -0.631  0.5408E+00  0.5408E+00  0.6688E+01  0.6688E+01
     -0.499  0.6037E+00  0.6037E+00  0.6768E+01  0.6768E+01
     -0.368  0.5440E+00  0.5441E+00  0.6839E+01  0.6839E+01
     -0.236  0.6442E+00  0.6441E+00  0.6924E+01  0.6924E+01
     -0.105  0.7545E+00  0.7545E+00  0.7023E+01  0.7023E+01
      0.026  0.6672E+00  0.6672E+00  0.7111E+01  0.7111E+01
      0.158  0.6758E+00  0.6758E+00  0.7200E+01  0.7200E+01
      0.289  0.7665E+00  0.7665E+00  0.7301E+01  0.7301E+01
      0.421  0.7844E+00  0.7844E+00  0.7404E+01  0.7404E+01
      0.552  0.8205E+00  0.8205E+00  0.7512E+01  0.7512E+01
      0.683  0.8906E+00  0.8906E+00  0.7629E+01  0.7629E+01
      0.815  0.9174E+00  0.9174E+00  0.7750E+01  0.7750E+01
      0.946  0.9157E+00  0.9157E+00  0.7871E+01  0.7871E+01
      1.078  0.9226E+00  0.9225E+00  0.7992E+01  0.7992E+01
      1.209  0.1065E+01  0.1065E+01  0.8132E+01  0.8132E+01
      1.340  0.1120E+01  0.1120E+01  0.8280E+01  0.8280E+01
      1.472  0.1156E+01  0.1155E+01  0.8432E+01  0.8432E+01
      1.603  0.1111E+01  0.1112E+01  0.8578E+01  0.8578E+01
      1.735  0.8513E+00  0.8514E+00  0.8690E+01  0.8690E+01
      1.866  0.9264E+00  0.9264E+00  0.8812E+01  0.8812E+01
      1.997  0.8604E+00  0.8604E+00  0.8926E+01  0.8926E+01
      2.129  0.9312E+00  0.9312E+00  0.9048E+01  0.9048E+01
      2.260  0.9642E+00  0.9642E+00  0.9175E+01  0.9175E+01
      2.392  0.9876E+00  0.9875E+00  0.9305E+01  0.9305E+01
      2.523  0.1104E+01  0.1104E+01  0.9450E+01  0.9450E+01
      2.654  0.1030E+01  0.1030E+01  0.9586E+01  0.9586E+01
      2.786  0.1224E+01  0.1224E+01  0.9747E+01  0.9747E+01
      2.917  0.1232E+01  0.1232E+01  0.9909E+01  0.9909E+01
      3.049  0.1273E+01  0.1273E+01  0.1008E+02  0.1008E+02
      3.180  0.1588E+01  0.1588E+01  0.1029E+02  0.1029E+02
      3.311  0.1317E+01  0.1317E+01  0.1046E+02  0.1046E+02
      3.443  0.1252E+01  0.1252E+01  0.1062E+02  0.1062E+02
      3.574  0.1198E+01  0.1198E+01  0.1078E+02  0.1078E+02
      3.706  0.1032E+01  0.1032E+01  0.1092E+02  0.1092E+02
      3.837  0.1108E+01  0.1108E+01  0.1106E+02  0.1106E+02
      3.968  0.1573E+01  0.1573E+01  0.1127E+02  0.1127E+02
      4.100  0.1561E+01  0.1561E+01  0.1148E+02  0.1147E+02
      4.231  0.1112E+01  0.1112E+01  0.1162E+02  0.1162E+02
      4.363  0.1077E+01  0.1077E+01  0.1176E+02  0.1176E+02
      4.494  0.1322E+01  0.1322E+01  0.1194E+02  0.1194E+02
      4.625  0.1584E+01  0.1584E+01  0.1215E+02  0.1215E+02
      4.757  0.1552E+01  0.1552E+01  0.1235E+02  0.1235E+02
      4.888  0.1585E+01  0.1585E+01  0.1256E+02  0.1256E+02
      5.020  0.1369E+01  0.1369E+01  0.1274E+02  0.1274E+02
      5.151  0.1489E+01  0.1489E+01  0.1293E+02  0.1293E+02
      5.282  0.1274E+01  0.1274E+01  0.1310E+02  0.1310E+02
      5.414  0.1326E+01  0.1326E+01  0.1328E+02  0.1328E+02
      5.545  0.1725E+01  0.1724E+01  0.1350E+02  0.1350E+02
      5.676  0.1849E+01  0.1849E+01  0.1375E+02  0.1375E+02
      5.808  0.2022E+01  0.2022E+01  0.1401E+02  0.1401E+02
      5.939  0.1946E+01  0.1946E+01  0.1427E+02  0.1427E+02
      6.071  0.1999E+01  0.1998E+01  0.1453E+02  0.1453E+02
      6.202  0.2885E+01  0.2884E+01  0.1491E+02  0.1491E+02
      6.333  0.3297E+01  0.3297E+01  0.1535E+02  0.1534E+02
      6.465  0.2311E+01  0.2311E+01  0.1565E+02  0.1565E+02
      6.596  0.1906E+01  0.1906E+01  0.1590E+02  0.1590E+02
      6.728  0.1829E+01  0.1829E+01  0.1614E+02  0.1614E+02
      6.859  0.1740E+01  0.1740E+01  0.1637E+02  0.1637E+02
      6.990  0.2038E+01  0.2037E+01  0.1664E+02  0.1664E+02
      7.122  0.2091E+01  0.2092E+01  0.1691E+02  0.1691E+02
      7.253  0.1980E+01  0.1980E+01  0.1717E+02  0.1717E+02
      7.385  0.1694E+01  0.1694E+01  0.1740E+02  0.1740E+02
      7.516  0.1779E+01  0.1778E+01  0.1763E+02  0.1763E+02
      7.647  0.2552E+01  0.2550E+01  0.1797E+02  0.1797E+02
      7.779  0.3021E+01  0.3021E+01  0.1836E+02  0.1836E+02
      7.910  0.2663E+01  0.2663E+01  0.1871E+02  0.1871E+02
      8.042  0.2274E+01  0.2275E+01  0.1901E+02  0.1901E+02
      8.173  0.1700E+01  0.1701E+01  0.1924E+02  0.1924E+02
      8.304  0.1534E+01  0.1535E+01  0.1944E+02  0.1944E+02
      8.436  0.1185E+01  0.1186E+01  0.1960E+02  0.1960E+02
      8.567  0.8600E+00  0.8603E+00  0.1971E+02  0.1971E+02
      8.699  0.8682E+00  0.8683E+00  0.1982E+02  0.1982E+02
      8.830  0.8333E+00  0.8335E+00  0.1993E+02  0.1993E+02
      8.961  0.8545E+00  0.8543E+00  0.2005E+02  0.2005E+02
      9.093  0.1016E+01  0.1016E+01  0.2018E+02  0.2018E+02
      9.224  0.1058E+01  0.1058E+01  0.2032E+02  0.2032E+02
      9.356  0.1220E+01  0.1219E+01  0.2048E+02  0.2048E+02
      9.487  0.1386E+01  0.1386E+01  0.2066E+02  0.2066E+02
      9.618  0.1347E+01  0.1347E+01  0.2084E+02  0.2084E+02
      9.750  0.1693E+01  0.1693E+01  0.2106E+02  0.2106E+02
      9.881  0.2048E+01  0.2048E+01  0.2133E+02  0.2133E+02
     10.013  0.2320E+01  0.2320E+01  0.2164E+02  0.2164E+02
     10.144  0.2461E+01  0.2460E+01  0.2196E+02  0.2196E+02
     10.275  0.3036E+01  0.3035E+01  0.2236E+02  0.2236E+02
     10.407  0.3210E+01  0.3210E+01  0.2278E+02  0.2278E+02
     10.538  0.3268E+01  0.3267E+01  0.2321E+02  0.2321E+02
     10.670  0.2735E+01  0.2735E+01  0.2357E+02  0.2357E+02
     10.801  0.2366E+01  0.2367E+01  0.2388E+02  0.2388E+02
     10.932  0.2389E+01  0.2389E+01  0.2420E+02  0.2420E+02
     11.064  0.2516E+01  0.2516E+01  0.2453E+02  0.2453E+02
     11.195  0.2859E+01  0.2859E+01  0.2491E+02  0.2491E+02
     11.327  0.3145E+01  0.3145E+01  0.2532E+02  0.2532E+02
     11.458  0.2580E+01  0.2581E+01  0.2566E+02  0.2566E+02
     11.589  0.1665E+01  0.1666E+01  0.2588E+02  0.2588E+02
     11.721  0.1375E+01  0.1376E+01  0.2606E+02  0.2606E+02
     11.852  0.1060E+01  0.1060E+01  0.2620E+02  0.2620E+02
     11.984  0.1230E+01  0.1229E+01  0.2636E+02  0.2636E+02
     12.115  0.1550E+01  0.1548E+01  0.2657E+02  0.2657E+02
     12.246  0.1588E+01  0.1571E+01  0.2677E+02  0.2677E+02
     12.378  0.1696E+01  0.1670E+01  0.2700E+02  0.2699E+02
     12.509  0.1737E+01  0.1773E+01  0.2723E+02  0.2722E+02
     12.641  0.1754E+01  0.1772E+01  0.2746E+02  0.2746E+02
     12.772  0.1308E+01  0.1309E+01  0.2763E+02  0.2763E+02
     12.903  0.8983E+00  0.8897E+00  0.2775E+02  0.2775E+02
     13.035  0.6052E+00  0.6080E+00  0.2783E+02  0.2783E+02
     13.166  0.5260E+00  0.5303E+00  0.2790E+02  0.2790E+02
     13.297  0.3850E+00  0.3519E+00  0.2795E+02  0.2794E+02
     13.429  0.2158E+00  0.2145E+00  0.2798E+02  0.2797E+02
     13.560  0.9698E-01  0.1205E+00  0.2799E+02  0.2799E+02
     13.692  0.3731E-01  0.4213E-01  0.2799E+02  0.2799E+02
     13.823  0.2244E-01  0.2218E-01  0.2800E+02  0.2800E+02
     13.954  0.1673E-01  0.1663E-01  0.2800E+02  0.2800E+02
     14.086  0.3643E-02  0.3875E-02  0.2800E+02  0.2800E+02
     14.217  0.3031E-03  0.3192E-03  0.2800E+02  0.2800E+02
     14.349  0.0000E+00  0.0000E+00  0.2800E+02  0.2800E+02
     14.480  0.0000E+00  0.0000E+00  0.2800E+02  0.2800E+02
     14.611  0.0000E+00  0.0000E+00  0.2800E+02  0.2800E+02
     14.743  0.0000E+00  0.0000E+00  0.2800E+02  0.2800E+02
     14.874  0.0000E+00  0.0000E+00  0.2800E+02  0.2800E+02
     15.006  0.0000E+00  0.0000E+00  0.2800E+02  0.2800E+02
     15.137  0.0000E+00  0.0000E+00  0.2800E+02  0.2800E+02
     15.268  0.0000E+00  0.0000E+00  0.2800E+02  0.2800E+02
     15.400  0.0000E+00  0.0000E+00  0.2800E+02  0.2800E+02
     15.531  0.0000E+00  0.0000E+00  0.2800E+02  0.2800E+02
     15.663  0.0000E+00  0.0000E+00  0.2800E+02  0.2800E+02
     15.66262957    -23.75631787  301      8.03449959      1.00000000
    -23.756  0.0000E+00  0.0000E+00  0.0000E+00  0.0000E+00  0.0000E+00  0.0000E+00  0.0000E+00  0.0000E+00  0.0000E+00  0.0000E+00  0.0000E+00  0.0000E+00  0.0000E+00  0.0000E+00  0.0000E+00  0.0000E+00  0.0000E+00  0.0000E+00
    -23.625  0.0000E+00  0.0000E+00  0.0000E+00  0.0000E+00  0.0000E+00  0.0000E+00  0.0000E+00  0.0000E+00  0.0000E+00  0.0000E+00  0.0000E+00  0.0000E+00  0.0000E+00  0.0000E+00  0.0000E+00  0.0000E+00  0.0000E+00  0.0000E+00
    -23.494  0.0000E+00  0.0000E+00  0.0000E+00  0.0000E+00  0.0000E+00  0.0000E+00  0.0000E+00  0.0000E+00  0.0000E+00  0.0000E+00  0.0000E+00  0.0000E+00  0.0000E+00  0.0000E+00  0.0000E+00  0.0000E+00  0.0000E+00  0.0000E+00
    -23.362  0.0000E+00  0.0000E+00  0.0000E+00  0.0000E+00  0.0000E+00  0.0000E+00  0.0000E+00  0.0000E+00  0.0000E+00  0.0000E+00  0.0000E+00  0.0000E+00  0.0000E+00  0.0000E+00  0.0000E+00  0.0000E+00  0.0000E+00  0.0000E+00
    -23.231  0.0000E+00  0.0000E+00  0.0000E+00  0.0000E+00  0.0000E+00  0.0000E+00  0.0000E+00  0.0000E+00  0.0000E+00  0.0000E+00  0.0000E+00  0.0000E+00  0.0000E+00  0.0000E+00  0.0000E+00  0.0000E+00  0.0000E+00  0.0000E+00
    -23.099  0.0000E+00  0.0000E+00  0.0000E+00  0.0000E+00  0.0000E+00  0.0000E+00  0.0000E+00  0.0000E+00  0.0000E+00  0.0000E+00  0.0000E+00  0.0000E+00  0.0000E+00  0.0000E+00  0.0000E+00  0.0000E+00  0.0000E+00  0.0000E+00
    -22.968  0.0000E+00  0.0000E+00  0.0000E+00  0.0000E+00  0.0000E+00  0.0000E+00  0.0000E+00  0.0000E+00  0.0000E+00  0.0000E+00  0.0000E+00  0.0000E+00  0.0000E+00  0.0000E+00  0.0000E+00  0.0000E+00  0.0000E+00  0.0000E+00
    -22.837  0.0000E+00  0.0000E+00  0.0000E+00  0.0000E+00  0.0000E+00  0.0000E+00  0.0000E+00  0.0000E+00  0.0000E+00  0.0000E+00  0.0000E+00  0.0000E+00  0.0000E+00  0.0000E+00  0.0000E+00  0.0000E+00  0.0000E+00  0.0000E+00
    -22.705  0.0000E+00  0.0000E+00  0.0000E+00  0.0000E+00  0.0000E+00  0.0000E+00  0.0000E+00  0.0000E+00  0.0000E+00  0.0000E+00  0.0000E+00  0.0000E+00  0.0000E+00  0.0000E+00  0.0000E+00  0.0000E+00  0.0000E+00  0.0000E+00
    -22.574  0.0000E+00  0.0000E+00  0.0000E+00  0.0000E+00  0.0000E+00  0.0000E+00  0.0000E+00  0.0000E+00  0.0000E+00  0.0000E+00  0.0000E+00  0.0000E+00  0.0000E+00  0.0000E+00  0.0000E+00  0.0000E+00  0.0000E+00  0.0000E+00
    -22.442  0.6813E-09  0.6621E-09  0.2594E-03  0.2526E-03  0.1293E-06  0.1280E-06  0.2594E-03  0.2526E-03  0.4301E-10  0.4269E-10  0.3633E-11  0.3584E-11  0.2622E-09  0.2545E-09  0.3633E-11  0.3584E-11  0.7529E-09  0.7290E-09
    -22.311  0.9104E-08  0.9030E-08  0.3826E-02  0.3793E-02  0.3491E-03  0.3455E-03  0.3826E-02  0.3793E-02  0.5975E-09  0.5938E-09  0.8230E-10  0.8183E-10  0.3505E-08  0.3474E-08  0.8230E-10  0.8183E-10  0.1010E-07  0.1001E-07
    -22.180  0.1247E-06  0.1235E-06  0.5202E-01  0.5151E-01  0.4483E-02  0.4436E-02  0.5202E-01  0.5151E-01  0.8149E-08  0.8099E-08  0.1097E-08  0.1091E-08  0.4800E-07  0.4752E-07  0.1097E-08  0.1091E-08  0.1383E-06  0.1369E-06
    -22.048  0.1555E-05  0.1542E-05  0.6426E+00  0.6370E+00  0.6148E-01  0.6084E-01  0.6426E+00  0.6370E+00  0.9973E-07  0.9921E-07  0.1406E-07  0.1398E-07  0.5988E-06  0.5934E-06  0.1406E-07  0.1398E-07  0.1729E-05  0.1713E-05
    -21.917  0.8836E-05  0.8811E-05  0.3536E+01  0.3524E+01  0.7552E+00  0.7483E+00  0.3536E+01  0.3524E+01  0.5162E-06  0.5162E-06  0.1139E-06  0.1135E-06  0.3409E-05  0.3397E-05  0.1139E-06  0.1135E-06  0.9963E-05  0.9929E-05
    -21.785  0.6994E-05  0.7032E-05  0.2812E+01  0.2825E+01  0.3878E+01  0.3868E+01  0.2812E+01  0.2825E+01  0.3841E-06  0.3867E-06  0.3898E-06  0.3893E-06  0.2702E-05  0.2714E-05  0.3898E-06  0.3893E-06  0.7929E-05  0.7968E-05
    -21.654  0.9809E-06  0.9905E-06  0.3834E+00  0.3869E+00  0.2455E+01  0.2470E+01  0.3834E+00  0.3869E+00  0.6011E-07  0.6069E-07  0.2242E-06  0.2257E-06  0.3782E-06  0.3816E-06  0.2242E-06  0.2257E-06  0.1045E-05  0.1055E-05
    -21.523  0.3585E-07  0.3625E-07  0.1679E-01  0.1696E-01  0.2813E+00  0.2842E+00  0.1679E-01  0.1696E-01  0.3099E-08  0.3126E-08  0.2500E-07  0.2526E-07  0.1379E-07  0.1393E-07  0.2500E-07  0.2526E-07  0.3212E-07  0.3244E-07
    -21.391  0.0000E+00  0.0000E+00  0.0000E+00  0.0000E+00  0.0000E+00  0.0000E+00  0.0000E+00  0.0000E+00  0.0000E+00  0.0000E+00  0.0000E+00  0.0000E+00  0.0000E+00  0.0000E+00  0.0000E+00  0.0000E+00  0.0000E+00  0.0000E+00
    -21.260  0.0000E+00  0.0000E+00  0.0000E+00  0.0000E+00  0.0000E+00  0.0000E+00  0.0000E+00  0.0000E+00  0.0000E+00  0.0000E+00  0.0000E+00  0.0000E+00  0.0000E+00  0.0000E+00  0.0000E+00  0.0000E+00  0.0000E+00  0.0000E+00
    -21.128  0.0000E+00  0.0000E+00  0.0000E+00  0.0000E+00  0.0000E+00  0.0000E+00  0.0000E+00  0.0000E+00  0.0000E+00  0.0000E+00  0.0000E+00  0.0000E+00  0.0000E+00  0.0000E+00  0.0000E+00  0.0000E+00  0.0000E+00  0.0000E+00
    -20.997  0.0000E+00  0.0000E+00  0.0000E+00  0.0000E+00  0.0000E+00  0.0000E+00  0.0000E+00  0.0000E+00  0.0000E+00  0.0000E+00  0.0000E+00  0.0000E+00  0.0000E+00  0.0000E+00  0.0000E+00  0.0000E+00  0.0000E+00  0.0000E+00
    -20.866  0.0000E+00  0.0000E+00  0.0000E+00  0.0000E+00  0.0000E+00  0.0000E+00  0.0000E+00  0.0000E+00  0.0000E+00  0.0000E+00  0.0000E+00  0.0000E+00  0.0000E+00  0.0000E+00  0.0000E+00  0.0000E+00  0.0000E+00  0.0000E+00
    -20.734  0.0000E+00  0.0000E+00  0.0000E+00  0.0000E+00  0.0000E+00  0.0000E+00  0.0000E+00  0.0000E+00  0.0000E+00  0.0000E+00  0.0000E+00  0.0000E+00  0.0000E+00  0.0000E+00  0.0000E+00  0.0000E+00  0.0000E+00  0.0000E+00
    -20.603  0.0000E+00  0.0000E+00  0.0000E+00  0.0000E+00  0.0000E+00  0.0000E+00  0.0000E+00  0.0000E+00  0.0000E+00  0.0000E+00  0.0000E+00  0.0000E+00  0.0000E+00  0.0000E+00  0.0000E+00  0.0000E+00  0.0000E+00  0.0000E+00
    -20.471  0.0000E+00  0.0000E+00  0.0000E+00  0.0000E+00  0.0000E+00  0.0000E+00  0.0000E+00  0.0000E+00  0.0000E+00  0.0000E+00  0.0000E+00  0.0000E+00  0.0000E+00  0.0000E+00  0.0000E+00  0.0000E+00  0.0000E+00  0.0000E+00
    -20.340  0.0000E+00  0.0000E+00  0.0000E+00  0.0000E+00  0.0000E+00  0.0000E+00  0.0000E+00  0.0000E+00  0.0000E+00  0.0000E+00  0.0000E+00  0.0000E+00  0.0000E+00  0.0000E+00  0.0000E+00  0.0000E+00  0.0000E+00  0.0000E+00
    -20.209  0.0000E+00  0.0000E+00  0.0000E+00  0.0000E+00  0.0000E+00  0.0000E+00  0.0000E+00  0.0000E+00  0.0000E+00  0.0000E+00  0.0000E+00  0.0000E+00  0.0000E+00  0.0000E+00  0.0000E+00  0.0000E+00  0.0000E+00  0.0000E+00
    -20.077  0.0000E+00  0.0000E+00  0.0000E+00  0.0000E+00  0.0000E+00  0.0000E+00  0.0000E+00  0.0000E+00  0.0000E+00  0.0000E+00  0.0000E+00  0.0000E+00  0.0000E+00  0.0000E+00  0.0000E+00  0.0000E+00  0.0000E+00  0.0000E+00
    -19.946  0.0000E+00  0.0000E+00  0.0000E+00  0.0000E+00  0.0000E+00  0.0000E+00  0.0000E+00  0.0000E+00  0.0000E+00  0.0000E+00  0.0000E+00  0.0000E+00  0.0000E+00  0.0000E+00  0.0000E+00  0.0000E+00  0.0000E+00  0.0000E+00
    -19.814  0.0000E+00  0.0000E+00  0.0000E+00  0.0000E+00  0.0000E+00  0.0000E+00  0.0000E+00  0.0000E+00  0.0000E+00  0.0000E+00  0.0000E+00  0.0000E+00  0.0000E+00  0.0000E+00  0.0000E+00  0.0000E+00  0.0000E+00  0.0000E+00
    -19.683  0.0000E+00  0.0000E+00  0.0000E+00  0.0000E+00  0.0000E+00  0.0000E+00  0.0000E+00  0.0000E+00  0.0000E+00  0.0000E+00  0.0000E+00  0.0000E+00  0.0000E+00  0.0000E+00  0.0000E+00  0.0000E+00  0.0000E+00  0.0000E+00
    -19.552  0.0000E+00  0.0000E+00  0.0000E+00  0.0000E+00  0.0000E+00  0.0000E+00  0.0000E+00  0.0000E+00  0.0000E+00  0.0000E+00  0.0000E+00  0.0000E+00  0.0000E+00  0.0000E+00  0.0000E+00  0.0000E+00  0.0000E+00  0.0000E+00
    -19.420  0.0000E+00  0.0000E+00  0.0000E+00  0.0000E+00  0.0000E+00  0.0000E+00  0.0000E+00  0.0000E+00  0.0000E+00  0.0000E+00  0.0000E+00  0.0000E+00  0.0000E+00  0.0000E+00  0.0000E+00  0.0000E+00  0.0000E+00  0.0000E+00
    -19.289  0.0000E+00  0.0000E+00  0.0000E+00  0.0000E+00  0.0000E+00  0.0000E+00  0.0000E+00  0.0000E+00  0.0000E+00  0.0000E+00  0.0000E+00  0.0000E+00  0.0000E+00  0.0000E+00  0.0000E+00  0.0000E+00  0.0000E+00  0.0000E+00
    -19.157  0.0000E+00  0.0000E+00  0.0000E+00  0.0000E+00  0.0000E+00  0.0000E+00  0.0000E+00  0.0000E+00  0.0000E+00  0.0000E+00  0.0000E+00  0.0000E+00  0.0000E+00  0.0000E+00  0.0000E+00  0.0000E+00  0.0000E+00  0.0000E+00
    -19.026  0.0000E+00  0.0000E+00  0.0000E+00  0.0000E+00  0.0000E+00  0.0000E+00  0.0000E+00  0.0000E+00  0.0000E+00  0.0000E+00  0.0000E+00  0.0000E+00  0.0000E+00  0.0000E+00  0.0000E+00  0.0000E+00  0.0000E+00  0.0000E+00
    -18.895  0.0000E+00  0.0000E+00  0.0000E+00  0.0000E+00  0.0000E+00  0.0000E+00  0.0000E+00  0.0000E+00  0.0000E+00  0.0000E+00  0.0000E+00  0.0000E+00  0.0000E+00  0.0000E+00  0.0000E+00  0.0000E+00  0.0000E+00  0.0000E+00
    -18.763  0.0000E+00  0.0000E+00  0.0000E+00  0.0000E+00  0.0000E+00  0.0000E+00  0.0000E+00  0.0000E+00  0.0000E+00  0.0000E+00  0.0000E+00  0.0000E+00  0.0000E+00  0.0000E+00  0.0000E+00  0.0000E+00  0.0000E+00  0.0000E+00
    -18.632  0.0000E+00  0.0000E+00  0.0000E+00  0.0000E+00  0.0000E+00  0.0000E+00  0.0000E+00  0.0000E+00  0.0000E+00  0.0000E+00  0.0000E+00  0.0000E+00  0.0000E+00  0.0000E+00  0.0000E+00  0.0000E+00  0.0000E+00  0.0000E+00
    -18.500  0.0000E+00  0.0000E+00  0.0000E+00  0.0000E+00  0.0000E+00  0.0000E+00  0.0000E+00  0.0000E+00  0.0000E+00  0.0000E+00  0.0000E+00  0.0000E+00  0.0000E+00  0.0000E+00  0.0000E+00  0.0000E+00  0.0000E+00  0.0000E+00
    -18.369  0.0000E+00  0.0000E+00  0.0000E+00  0.0000E+00  0.0000E+00  0.0000E+00  0.0000E+00  0.0000E+00  0.0000E+00  0.0000E+00  0.0000E+00  0.0000E+00  0.0000E+00  0.0000E+00  0.0000E+00  0.0000E+00  0.0000E+00  0.0000E+00
    -18.238  0.0000E+00  0.0000E+00  0.0000E+00  0.0000E+00  0.0000E+00  0.0000E+00  0.0000E+00  0.0000E+00  0.0000E+00  0.0000E+00  0.0000E+00  0.0000E+00  0.0000E+00  0.0000E+00  0.0000E+00  0.0000E+00  0.0000E+00  0.0000E+00
    -18.106  0.0000E+00  0.0000E+00  0.0000E+00  0.0000E+00  0.0000E+00  0.0000E+00  0.0000E+00  0.0000E+00  0.0000E+00  0.0000E+00  0.0000E+00  0.0000E+00  0.0000E+00  0.0000E+00  0.0000E+00  0.0000E+00  0.0000E+00  0.0000E+00
    -17.975  0.0000E+00  0.0000E+00  0.0000E+00  0.0000E+00  0.0000E+00  0.0000E+00  0.0000E+00  0.0000E+00  0.0000E+00  0.0000E+00  0.0000E+00  0.0000E+00  0.0000E+00  0.0000E+00  0.0000E+00  0.0000E+00  0.0000E+00  0.0000E+00
    -17.843  0.0000E+00  0.0000E+00  0.0000E+00  0.0000E+00  0.0000E+00  0.0000E+00  0.0000E+00  0.0000E+00  0.0000E+00  0.0000E+00  0.0000E+00  0.0000E+00  0.0000E+00  0.0000E+00  0.0000E+00  0.0000E+00  0.0000E+00  0.0000E+00
    -17.712  0.0000E+00  0.0000E+00  0.0000E+00  0.0000E+00  0.0000E+00  0.0000E+00  0.0000E+00  0.0000E+00  0.0000E+00  0.0000E+00  0.0000E+00  0.0000E+00  0.0000E+00  0.0000E+00  0.0000E+00  0.0000E+00  0.0000E+00  0.0000E+00
    -17.581  0.0000E+00  0.0000E+00  0.0000E+00  0.0000E+00  0.0000E+00  0.0000E+00  0.0000E+00  0.0000E+00  0.0000E+00  0.0000E+00  0.0000E+00  0.0000E+00  0.0000E+00  0.0000E+00  0.0000E+00  0.0000E+00  0.0000E+00  0.0000E+00
    -17.449  0.0000E+00  0.0000E+00  0.0000E+00  0.0000E+00  0.0000E+00  0.0000E+00  0.0000E+00  0.0000E+00  0.0000E+00  0.0000E+00  0.0000E+00  0.0000E+00  0.0000E+00  0.0000E+00  0.0000E+00  0.0000E+00  0.0000E+00  0.0000E+00
    -17.318  0.0000E+00  0.0000E+00  0.0000E+00  0.0000E+00  0.0000E+00  0.0000E+00  0.0000E+00  0.0000E+00  0.0000E+00  0.0000E+00  0.0000E+00  0.0000E+00  0.0000E+00  0.0000E+00  0.0000E+00  0.0000E+00  0.0000E+00  0.0000E+00
    -17.186  0.0000E+00  0.0000E+00  0.0000E+00  0.0000E+00  0.0000E+00  0.0000E+00  0.0000E+00  0.0000E+00  0.0000E+00  0.0000E+00  0.0000E+00  0.0000E+00  0.0000E+00  0.0000E+00  0.0000E+00  0.0000E+00  0.0000E+00  0.0000E+00