   8   8   1   0
  0.1495886E+02  0.3911285E-09  0.3911285E-09  0.7822571E-09  0.5000000E-15
  1.000000000000000E-004
  CAR 
 unknown system                          
     16.14622782    -23.39543146  301      8.33246789      1.00000000
    -23.395  0.0000E+00  0.0000E+00  0.0000E+00  0.0000E+00
    -23.264  0.0000E+00  0.0000E+00  0.0000E+00  0.0000E+00
    -23.132  0.0000E+00  0.0000E+00  0.0000E+00  0.0000E+00
    -23.000  0.0000E+00  0.0000E+00  0.0000E+00  0.0000E+00
    -22.868  0.0000E+00  0.0000E+00  0.0000E+00  0.0000E+00
    -22.736  0.0000E+00  0.0000E+00  0.0000E+00  0.0000E+00
    -22.605  0.0000E+00  0.0000E+00  0.0000E+00  0.0000E+00
    -22.473  0.0000E+00  0.0000E+00  0.0000E+00  0.0000E+00
    -22.341  0.0000E+00  0.0000E+00  0.0000E+00  0.0000E+00
    -22.209  0.0000E+00  0.0000E+00  0.0000E+00  0.0000E+00
    -22.077  0.8513E-03  0.8658E-03  0.1122E-03  0.1141E-03
    -21.946  0.1466E-01  0.1490E-01  0.2045E-02  0.2078E-02
    -21.814  0.1994E+00  0.2026E+00  0.2833E-01  0.2879E-01
    -21.682  0.2509E+01  0.2545E+01  0.3590E+00  0.3643E+00
    -21.550  0.1525E+02  0.1533E+02  0.2368E+01  0.2384E+01
    -21.418  0.1987E+02  0.1978E+02  0.4987E+01  0.4991E+01
    -21.287  0.6894E+01  0.6866E+01  0.5896E+01  0.5896E+01
    -21.155  0.6855E+00  0.6836E+00  0.5993E+01  0.5993E+01
    -21.023  0.0000E+00  0.0000E+00  0.6000E+01  0.6000E+01
    -20.891  0.0000E+00  0.0000E+00  0.6000E+01  0.6000E+01
    -20.759  0.0000E+00  0.0000E+00  0.6000E+01  0.6000E+01
    -20.628  0.0000E+00  0.0000E+00  0.6000E+01  0.6000E+01
    -20.496  0.0000E+00  0.0000E+00  0.6000E+01  0.6000E+01
    -20.364  0.0000E+00  0.0000E+00  0.6000E+01  0.6000E+01
    -20.232  0.0000E+00  0.0000E+00  0.6000E+01  0.6000E+01
    -20.100  0.0000E+00  0.0000E+00  0.6000E+01  0.6000E+01
    -19.968  0.0000E+00  0.0000E+00  0.6000E+01  0.6000E+01
    -19.837  0.0000E+00  0.0000E+00  0.6000E+01  0.6000E+01
    -19.705  0.0000E+00  0.0000E+00  0.6000E+01  0.6000E+01
    -19.573  0.0000E+00  0.0000E+00  0.6000E+01  0.6000E+01
    -19.441  0.0000E+00  0.0000E+00  0.6000E+01  0.6000E+01
    -19.309  0.0000E+00  0.0000E+00  0.6000E+01  0.6000E+01
    -19.178  0.0000E+00  0.0000E+00  0.6000E+01  0.6000E+01
    -19.046  0.0000E+00  0.0000E+00  0.6000E+01  0.6000E+01
    -18.914  0.0000E+00  0.0000E+00  0.6000E+01  0.6000E+01
    -18.782  0.0000E+00  0.0000E+00  0.6000E+01  0.6000E+01
    -18.650  0.0000E+00  0.0000E+00  0.6000E+01  0.6000E+01
    -18.519  0.0000E+00  0.0000E+00  0.6000E+01  0.6000E+01
    -18.387  0.0000E+00  0.0000E+00  0.6000E+01  0.6000E+01
    -18.255  0.0000E+00  0.0000E+00  0.6000E+01  0.6000E+01
    -18.123  0.0000E+00  0.0000E+00  0.6000E+01  0.6000E+01
    -17.991  0.0000E+00  0.0000E+00  0.6000E+01  0.6000E+01
    -17.860  0.0000E+00  0.0000E+00  0.6000E+01  0.6000E+01
    -17.728  0.0000E+00  0.0000E+00  0.6000E+01  0.6000E+01
    -17.596  0.0000E+00  0.0000E+00  0.6000E+01  0.6000E+01
    -17.464  0.0000E+00  0.0000E+00  0.6000E+01  0.6000E+01
    -17.332  0.0000E+00  0.0000E+00  0.6000E+01  0.6000E+01
    -17.201  0.0000E+00  0.0000E+00  0.6000E+01  0.6000E+01
    -17.069  0.0000E+00  0.0000E+00  0.6000E+01  0.6000E+01
    -16.937  0.0000E+00  0.0000E+00  0.6000E+01  0.6000E+01
    -16.805  0.0000E+00  0.0000E+00  0.6000E+01  0.6000E+01
    -16.673  0.0000E+00  0.0000E+00  0.6000E+01  0.6000E+01
    -16.542  0.0000E+00  0.0000E+00  0.6000E+01  0.6000E+01
    -16.410  0.0000E+00  0.0000E+00  0.6000E+01  0.6000E+01
    -16.278  0.0000E+00  0.0000E+00  0.6000E+01  0.6000E+01
    -16.146  0.0000E+00  0.0000E+00  0.6000E+01  0.6000E+01
    -16.014  0.0000E+00  0.0000E+00  0.6000E+01  0.6000E+01
    -15.883  0.0000E+00  0.0000E+00  0.6000E+01  0.6000E+01
    -15.751  0.0000E+00  0.0000E+00  0.6000E+01  0.6000E+01
    -15.619  0.0000E+00  0.0000E+00  0.6000E+01  0.6000E+01
    -15.487  0.0000E+00  0.0000E+00  0.6000E+01  0.6000E+01
    -15.355  0.0000E+00  0.0000E+00  0.6000E+01  0.6000E+01
    -15.223  0.0000E+00  0.0000E+00  0.6000E+01  0.6000E+01
    -15.092  0.0000E+00  0.0000E+00  0.6000E+01  0.6000E+01
    -14.960  0.0000E+00  0.0000E+00  0.6000E+01  0.6000E+01
    -14.828  0.0000E+00  0.0000E+00  0.6000E+01  0.6000E+01
    -14.696  0.0000E+00  0.0000E+00  0.6000E+01  0.6000E+01
    -14.564  0.0000E+00  0.0000E+00  0.6000E+01  0.6000E+01
    -14.433  0.0000E+00  0.0000E+00  0.6000E+01  0.6000E+01
    -14.301  0.0000E+00  0.0000E+00  0.6000E+01  0.6000E+01
    -14.169  0.0000E+00  0.0000E+00  0.6000E+01  0.6000E+01
    -14.037  0.0000E+00  0.0000E+00  0.6000E+01  0.6000E+01
    -13.905  0.0000E+00  0.0000E+00  0.6000E+01  0.6000E+01
    -13.774  0.0000E+00  0.0000E+00  0.6000E+01  0.6000E+01
    -13.642  0.0000E+00  0.0000E+00  0.6000E+01  0.6000E+01
    -13.510  0.0000E+00  0.0000E+00  0.6000E+01  0.6000E+01
    -13.378  0.0000E+00  0.0000E+00  0.6000E+01  0.6000E+01
    -13.246  0.0000E+00  0.0000E+00  0.6000E+01  0.6000E+01
    -13.115  0.0000E+00  0.0000E+00  0.6000E+01  0.6000E+01
    -12.983  0.0000E+00  0.0000E+00  0.6000E+01  0.6000E+01
    -12.851  0.0000E+00  0.0000E+00  0.6000E+01  0.6000E+01
    -12.719  0.0000E+00  0.0000E+00  0.6000E+01  0.6000E+01
    -12.587  0.0000E+00  0.0000E+00  0.6000E+01  0.6000E+01
    -12.456  0.0000E+00  0.0000E+00  0.6000E+01  0.6000E+01
    -12.324  0.0000E+00  0.0000E+00  0.6000E+01  0.6000E+01
    -12.192  0.0000E+00  0.0000E+00  0.6000E+01  0.6000E+01
    -12.060  0.0000E+00  0.0000E+00  0.6000E+01  0.6000E+01
    -11.928  0.0000E+00  0.0000E+00  0.6000E+01  0.6000E+01
    -11.797  0.0000E+00  0.0000E+00  0.6000E+01  0.6000E+01
    -11.665  0.0000E+00  0.0000E+00  0.6000E+01  0.6000E+01
    -11.533  0.0000E+00  0.0000E+00  0.6000E+01  0.6000E+01
    -11.401  0.0000E+00  0.0000E+00  0.6000E+01  0.6000E+01
    -11.269  0.0000E+00  0.0000E+00  0.6000E+01  0.6000E+01
    -11.138  0.0000E+00  0.0000E+00  0.6000E+01  0.6000E+01
    -11.006  0.0000E+00  0.0000E+00  0.6000E+01  0.6000E+01
    -10.874  0.0000E+00  0.0000E+00  0.6000E+01  0.6000E+01
    -10.742  0.0000E+00  0.0000E+00  0.6000E+01  0.6000E+01
    -10.610  0.0000E+00  0.0000E+00  0.6000E+01  0.6000E+01
    -10.478  0.0000E+00  0.0000E+00  0.6000E+01  0.6000E+01
    -10.347  0.0000E+00  0.0000E+00  0.6000E+01  0.6000E+01
    -10.215  0.0000E+00  0.0000E+00  0.6000E+01  0.6000E+01
    -10.083  0.0000E+00  0.0000E+00  0.6000E+01  0.6000E+01
     -9.951  0.0000E+00  0.0000E+00  0.6000E+01  0.6000E+01
     -9.819  0.0000E+00  0.0000E+00  0.6000E+01  0.6000E+01
     -9.688  0.0000E+00  0.0000E+00  0.6000E+01  0.6000E+01
     -9.556  0.0000E+00  0.0000E+00  0.6000E+01  0.6000E+01
     -9.424  0.0000E+00  0.0000E+00  0.6000E+01  0.6000E+01
     -9.292  0.0000E+00  0.0000E+00  0.6000E+01  0.6000E+01
     -9.160  0.0000E+00  0.0000E+00  0.6000E+01  0.6000E+01
     -9.029  0.0000E+00  0.0000E+00  0.6000E+01  0.6000E+01
     -8.897  0.0000E+00  0.0000E+00  0.6000E+01  0.6000E+01
     -8.765  0.0000E+00  0.0000E+00  0.6000E+01  0.6000E+01
     -8.633  0.0000E+00  0.0000E+00  0.6000E+01  0.6000E+01
     -8.501  0.0000E+00  0.0000E+00  0.6000E+01  0.6000E+01
     -8.370  0.0000E+00  0.0000E+00  0.6000E+01  0.6000E+01
     -8.238  0.0000E+00  0.0000E+00  0.6000E+01  0.6000E+01
     -8.106  0.0000E+00  0.0000E+00  0.6000E+01  0.6000E+01
     -7.974  0.0000E+00  0.0000E+00  0.6000E+01  0.6000E+01
     -7.842  0.0000E+00  0.0000E+00  0.6000E+01  0.6000E+01
     -7.711  0.0000E+00  0.0000E+00  0.6000E+01  0.6000E+01
     -7.579  0.0000E+00  0.0000E+00  0.6000E+01  0.6000E+01
     -7.447  0.0000E+00  0.0000E+00  0.6000E+01  0.6000E+01
     -7.315  0.0000E+00  0.0000E+00  0.6000E+01  0.6000E+01
     -7.183  0.0000E+00  0.0000E+00  0.6000E+01  0.6000E+01
     -7.052  0.0000E+00  0.0000E+00  0.6000E+01  0.6000E+01
     -6.920  0.0000E+00  0.0000E+00  0.6000E+01  0.6000E+01
     -6.788  0.0000E+00  0.0000E+00  0.6000E+01  0.6000E+01
     -6.656  0.0000E+00  0.0000E+00  0.6000E+01  0.6000E+01
     -6.524  0.0000E+00  0.0000E+00  0.6000E+01  0.6000E+01
     -6.393  0.0000E+00  0.0000E+00  0.6000E+01  0.6000E+01
     -6.261  0.0000E+00  0.0000E+00  0.6000E+01  0.6000E+01
     -6.129  0.0000E+00  0.0000E+00  0.6000E+01  0.6000E+01
     -5.997  0.0000E+00  0.0000E+00  0.6000E+01  0.6000E+01
     -5.865  0.0000E+00  0.0000E+00  0.6000E+01  0.6000E+01
     -5.733  0.0000E+00  0.0000E+00  0.6000E+01  0.6000E+01
     -5.602  0.0000E+00  0.0000E+00  0.6000E+01  0.6000E+01
     -5.470  0.0000E+00  0.0000E+00  0.6000E+01  0.6000E+01
     -5.338  0.0000E+00  0.0000E+00  0.6000E+01  0.6000E+01
     -5.206  0.0000E+00  0.0000E+00  0.6000E+01  0.6000E+01
     -5.074  0.0000E+00  0.0000E+00  0.6000E+01  0.6000E+01
     -4.943  0.0000E+00  0.0000E+00  0.6000E+01  0.6000E+01
     -4.811  0.0000E+00  0.0000E+00  0.6000E+01  0.6000E+01
     -4.679  0.0000E+00  0.0000E+00  0.6000E+01  0.6000E+01
     -4.547  0.0000E+00  0.0000E+00  0.6000E+01  0.6000E+01
     -4.415  0.0000E+00  0.0000E+00  0.6000E+01  0.6000E+01
     -4.284  0.0000E+00  0.0000E+00  0.6000E+01  0.6000E+01
     -4.152  0.0000E+00  0.0000E+00  0.6000E+01  0.6000E+01
     -4.020  0.0000E+00  0.0000E+00  0.6000E+01  0.6000E+01
     -3.888  0.0000E+00  0.0000E+00  0.6000E+01  0.6000E+01
     -3.756  0.0000E+00  0.0000E+00  0.6000E+01  0.6000E+01
     -3.625  0.0000E+00  0.0000E+00  0.6000E+01  0.6000E+01
     -3.493  0.0000E+00  0.0000E+00  0.6000E+01  0.6000E+01
     -3.361  0.0000E+00  0.0000E+00  0.6000E+01  0.6000E+01
     -3.229  0.0000E+00  0.0000E+00  0.6000E+01  0.6000E+01
     -3.097  0.0000E+00  0.0000E+00  0.6000E+01  0.6000E+01
     -2.966  0.2713E-06  0.2805E-06  0.6000E+01  0.6000E+01
     -2.834  0.1327E-04  0.1372E-04  0.6000E+01  0.6000E+01
     -2.702  0.1858E-03  0.1921E-03  0.6000E+01  0.6000E+01
     -2.570  0.2512E-02  0.2593E-02  0.6000E+01  0.6000E+01
     -2.438  0.2410E-01  0.2468E-01  0.6004E+01  0.6004E+01
     -2.307  0.8980E-01  0.9066E-01  0.6015E+01  0.6016E+01
     -2.175  0.1466E+00  0.1475E+00  0.6035E+01  0.6035E+01
     -2.043  0.2088E+00  0.2089E+00  0.6062E+01  0.6063E+01
     -1.911  0.2124E+00  0.2133E+00  0.6090E+01  0.6091E+01
     -1.779  0.2870E+00  0.2873E+00  0.6128E+01  0.6129E+01
     -1.648  0.2956E+00  0.2961E+00  0.6167E+01  0.6168E+01
     -1.516  0.3238E+00  0.3235E+00  0.6210E+01  0.6210E+01
     -1.384  0.3272E+00  0.3286E+00  0.6253E+01  0.6254E+01
     -1.252  0.4311E+00  0.4314E+00  0.6310E+01  0.6311E+01
     -1.120  0.4083E+00  0.4081E+00  0.6364E+01  0.6364E+01
     -0.988  0.3888E+00  0.3888E+00  0.6415E+01  0.6416E+01
     -0.857  0.4562E+00  0.4577E+00  0.6475E+01  0.6476E+01
     -0.725  0.5392E+00  0.5394E+00  0.6547E+01  0.6547E+01
     -0.593  0.4947E+00  0.4944E+00  0.6612E+01  0.6613E+01
     -0.461  0.5223E+00  0.5232E+00  0.6681E+01  0.6682E+01
     -0.329  0.5924E+00  0.5927E+00  0.6759E+01  0.6760E+01
     -0.198  0.5348E+00  0.5342E+00  0.6830E+01  0.6830E+01
     -0.066  0.6093E+00  0.6114E+00  0.6910E+01  0.6911E+01
      0.066  0.7360E+00  0.7366E+00  0.7007E+01  0.7008E+01
      0.198  0.6726E+00  0.6710E+00  0.7096E+01  0.7097E+01
      0.330  0.6521E+00  0.6529E+00  0.7182E+01  0.7183E+01
      0.461  0.7393E+00  0.7407E+00  0.7280E+01  0.7281E+01
      0.593  0.7755E+00  0.7752E+00  0.7382E+01  0.7383E+01
      0.725  0.7861E+00  0.7871E+00  0.7486E+01  0.7487E+01
      0.857  0.8740E+00  0.8746E+00  0.7601E+01  0.7603E+01
      0.989  0.8808E+00  0.8821E+00  0.7717E+01  0.7719E+01
      1.120  0.9217E+00  0.9211E+00  0.7839E+01  0.7841E+01
      1.252  0.8977E+00  0.8981E+00  0.7957E+01  0.7959E+01
      1.384  0.1020E+01  0.1022E+01  0.8092E+01  0.8094E+01
      1.516  0.1117E+01  0.1117E+01  0.8239E+01  0.8241E+01
      1.648  0.1142E+01  0.1142E+01  0.8390E+01  0.8392E+01
      1.779  0.1141E+01  0.1139E+01  0.8541E+01  0.8543E+01
      1.911  0.8877E+00  0.8842E+00  0.8658E+01  0.8659E+01
      2.043  0.8894E+00  0.8907E+00  0.8775E+01  0.8777E+01
      2.175  0.8968E+00  0.8949E+00  0.8894E+01  0.8895E+01
      2.307  0.8600E+00  0.8615E+00  0.9007E+01  0.9009E+01
      2.438  0.9670E+00  0.9668E+00  0.9135E+01  0.9136E+01
      2.570  0.9278E+00  0.9284E+00  0.9257E+01  0.9259E+01
      2.702  0.1089E+01  0.1090E+01  0.9401E+01  0.9403E+01
      2.834  0.9947E+00  0.9928E+00  0.9532E+01  0.9534E+01
      2.966  0.1053E+01  0.1055E+01  0.9671E+01  0.9673E+01
      3.097  0.1228E+01  0.1229E+01  0.9834E+01  0.9835E+01
      3.229  0.1219E+01  0.1219E+01  0.9994E+01  0.9996E+01
      3.361  0.1487E+01  0.1492E+01  0.1019E+02  0.1019E+02
      3.493  0.1468E+01  0.1464E+01  0.1038E+02  0.1039E+02
      3.625  0.1228E+01  0.1227E+01  0.1055E+02  0.1055E+02
      3.757  0.1256E+01  0.1255E+01  0.1071E+02  0.1071E+02
      3.888  0.1104E+01  0.1102E+01  0.1086E+02  0.1086E+02
      4.020  0.1051E+01  0.1052E+01  0.1100E+02  0.1100E+02
      4.152  0.1308E+01  0.1315E+01  0.1117E+02  0.1117E+02
      4.284  0.1692E+01  0.1690E+01  0.1139E+02  0.1140E+02
      4.416  0.1262E+01  0.1256E+01  0.1156E+02  0.1156E+02
      4.547  0.1066E+01  0.1065E+01  0.1170E+02  0.1170E+02
      4.679  0.1104E+01  0.1107E+01  0.1185E+02  0.1185E+02
      4.811  0.1565E+01  0.1569E+01  0.1205E+02  0.1206E+02
      4.943  0.1507E+01  0.1506E+01  0.1225E+02  0.1225E+02
      5.075  0.1598E+01  0.1597E+01  0.1246E+02  0.1246E+02
      5.206  0.1414E+01  0.1411E+01  0.1265E+02  0.1265E+02
      5.338  0.1366E+01  0.1368E+01  0.1283E+02  0.1283E+02
      5.470  0.1421E+01  0.1418E+01  0.1302E+02  0.1302E+02
      5.602  0.1142E+01  0.1142E+01  0.1317E+02  0.1317E+02
      5.734  0.1524E+01  0.1529E+01  0.1337E+02  0.1337E+02
      5.865  0.1746E+01  0.1745E+01  0.1360E+02  0.1360E+02
      5.997  0.1945E+01  0.1946E+01  0.1386E+02  0.1386E+02
      6.129  0.2014E+01  0.2012E+01  0.1412E+02  0.1412E+02
      6.261  0.1919E+01  0.1917E+01  0.1438E+02  0.1438E+02
      6.393  0.2214E+01  0.2223E+01  0.1467E+02  0.1467E+02
      6.524  0.3126E+01  0.3132E+01  0.1508E+02  0.1508E+02
      6.656  0.2968E+01  0.2956E+01  0.1547E+02  0.1547E+02
      6.788  0.1988E+01  0.1983E+01  0.1573E+02  0.1574E+02
      6.920  0.1908E+01  0.1906E+01  0.1599E+02  0.1599E+02
      7.052  0.1766E+01  0.1764E+01  0.1622E+02  0.1622E+02
      7.183  0.1814E+01  0.1814E+01  0.1646E+02  0.1646E+02
      7.315  0.2089E+01  0.2088E+01  0.1674E+02  0.1674E+02
      7.447  0.2033E+01  0.2032E+01  0.1700E+02  0.1700E+02
      7.579  0.1814E+01  0.1812E+01  0.1724E+02  0.1724E+02
      7.711  0.1625E+01  0.1624E+01  0.1746E+02  0.1746E+02
      7.842  0.1820E+01  0.1819E+01  0.1770E+02  0.1770E+02
      7.974  0.2667E+01  0.2667E+01  0.1805E+02  0.1805E+02
      8.106  0.2902E+01  0.2900E+01  0.1843E+02  0.1843E+02
      8.238  0.2686E+01  0.2682E+01  0.1879E+02  0.1879E+02
      8.370  0.2154E+01  0.2153E+01  0.1907E+02  0.1907E+02
      8.502  0.1652E+01  0.1650E+01  0.1929E+02  0.1929E+02
      8.633  0.1478E+01  0.1479E+01  0.1949E+02  0.1949E+02
      8.765  0.1081E+01  0.1082E+01  0.1963E+02  0.1963E+02
      8.897  0.7984E+00  0.7997E+00  0.1973E+02  0.1973E+02
      9.029  0.8630E+00  0.8636E+00  0.1985E+02  0.1985E+02
      9.161  0.7860E+00  0.7862E+00  0.1995E+02  0.1995E+02
      9.292  0.8428E+00  0.8430E+00  0.2006E+02  0.2006E+02
      9.424  0.9152E+00  0.9191E+00  0.2018E+02  0.2018E+02
      9.556  0.9573E+00  0.9603E+00  0.2031E+02  0.2031E+02
      9.688  0.1162E+01  0.1164E+01  0.2046E+02  0.2046E+02
      9.820  0.1317E+01  0.1317E+01  0.2064E+02  0.2064E+02
      9.951  0.1345E+01  0.1345E+01  0.2081E+02  0.2082E+02
     10.083  0.1578E+01  0.1578E+01  0.2102E+02  0.2102E+02
     10.215  0.1966E+01  0.1967E+01  0.2128E+02  0.2128E+02
     10.347  0.2215E+01  0.2215E+01  0.2157E+02  0.2158E+02
     10.479  0.2352E+01  0.2353E+01  0.2188E+02  0.2189E+02
     10.610  0.2773E+01  0.2773E+01  0.2225E+02  0.2225E+02
     10.742  0.3202E+01  0.3200E+01  0.2267E+02  0.2267E+02
     10.874  0.3234E+01  0.3229E+01  0.2310E+02  0.2310E+02
     11.006  0.2862E+01  0.2858E+01  0.2348E+02  0.2348E+02
     11.138  0.2290E+01  0.2292E+01  0.2378E+02  0.2378E+02
     11.269  0.2261E+01  0.2263E+01  0.2408E+02  0.2408E+02
     11.401  0.2364E+01  0.2366E+01  0.2439E+02  0.2439E+02
     11.533  0.2582E+01  0.2582E+01  0.2473E+02  0.2473E+02
     11.665  0.2998E+01  0.2998E+01  0.2513E+02  0.2513E+02
     11.797  0.2894E+01  0.2898E+01  0.2551E+02  0.2551E+02
     11.928  0.1921E+01  0.1920E+01  0.2576E+02  0.2576E+02
     12.060  0.1484E+01  0.1485E+01  0.2596E+02  0.2596E+02
     12.192  0.1151E+01  0.1149E+01  0.2611E+02  0.2611E+02
     12.324  0.9448E+00  0.9452E+00  0.2624E+02  0.2624E+02
     12.456  0.1314E+01  0.1315E+01  0.2641E+02  0.2641E+02
     12.587  0.1668E+01  0.1667E+01  0.2663E+02  0.2663E+02
     12.719  0.1444E+01  0.1474E+01  0.2682E+02  0.2683E+02
     12.851  0.1586E+01  0.1601E+01  0.2703E+02  0.2704E+02
     12.983  0.1696E+01  0.1676E+01  0.2725E+02  0.2726E+02
     13.115  0.1729E+01  0.1706E+01  0.2748E+02  0.2748E+02
     13.247  0.1300E+01  0.1297E+01  0.2765E+02  0.2765E+02
     13.378  0.7740E+00  0.7685E+00  0.2776E+02  0.2776E+02
     13.510  0.5319E+00  0.5259E+00  0.2783E+02  0.2783E+02
     13.642  0.5158E+00  0.5158E+00  0.2790E+02  0.2789E+02
     13.774  0.3727E+00  0.3472E+00  0.2794E+02  0.2794E+02
     13.906  0.2288E+00  0.2537E+00  0.2797E+02  0.2797E+02
     14.037  0.1130E+00  0.1223E+00  0.2799E+02  0.2799E+02
     14.169  0.3991E-01  0.3778E-01  0.2800E+02  0.2800E+02
     14.301  0.1441E-01  0.1418E-01  0.2800E+02  0.2800E+02
     14.433  0.1733E-01  0.1716E-01  0.2800E+02  0.2800E+02
     14.565  0.4040E-02  0.3949E-02  0.2800E+02  0.2800E+02
     14.696  0.3143E-03  0.3083E-03  0.2800E+02  0.2800E+02
     14.828  0.0000E+00  0.0000E+00  0.2800E+02  0.2800E+02
     14.960  0.0000E+00  0.0000E+00  0.2800E+02  0.2800E+02
     15.092  0.0000E+00  0.0000E+00  0.2800E+02  0.2800E+02
     15.224  0.0000E+00  0.0000E+00  0.2800E+02  0.2800E+02
     15.355  0.0000E+00  0.0000E+00  0.2800E+02  0.2800E+02
     15.487  0.0000E+00  0.0000E+00  0.2800E+02  0.2800E+02
     15.619  0.0000E+00  0.0000E+00  0.2800E+02  0.2800E+02
     15.751  0.0000E+00  0.0000E+00  0.2800E+02  0.2800E+02
     15.883  0.0000E+00  0.0000E+00  0.2800E+02  0.2800E+02
     16.014  0.0000E+00  0.0000E+00  0.2800E+02  0.2800E+02
     16.146  0.0000E+00  0.0000E+00  0.2800E+02  0.2800E+02
     16.14622782    -23.39543146  301      8.33246789      1.00000000
    -23.395  0.0000E+00  0.0000E+00  0.0000E+00  0.0000E+00  0.0000E+00  0.0000E+00  0.0000E+00  0.0000E+00  0.0000E+00  0.0000E+00  0.0000E+00  0.0000E+00  0.0000E+00  0.0000E+00  0.0000E+00  0.0000E+00  0.0000E+00  0.0000E+00
    -23.264  0.0000E+00  0.0000E+00  0.0000E+00  0.0000E+00  0.0000E+00  0.0000E+00  0.0000E+00  0.0000E+00  0.0000E+00  0.0000E+00  0.0000E+00  0.0000E+00  0.0000E+00  0.0000E+00  0.0000E+00  0.0000E+00  0.0000E+00  0.0000E+00
    -23.132  0.0000E+00  0.0000E+00  0.0000E+00  0.0000E+00  0.0000E+00  0.0000E+00  0.0000E+00  0.0000E+00  0.0000E+00  0.0000E+00  0.0000E+00  0.0000E+00  0.0000E+00  0.0000E+00  0.0000E+00  0.0000E+00  0.0000E+00  0.0000E+00
    -23.000  0.0000E+00  0.0000E+00  0.0000E+00  0.0000E+00  0.0000E+00  0.0000E+00  0.0000E+00  0.0000E+00  0.0000E+00  0.0000E+00  0.0000E+00  0.0000E+00  0.0000E+00  0.0000E+00  0.0000E+00  0.0000E+00  0.0000E+00  0.0000E+00
    -22.868  0.0000E+00  0.0000E+00  0.0000E+00  0.0000E+00  0.0000E+00  0.0000E+00  0.0000E+00  0.0000E+00  0.0000E+00  0.0000E+00  0.0000E+00  0.0000E+00  0.0000E+00  0.0000E+00  0.0000E+00  0.0000E+00  0.0000E+00  0.0000E+00
    -22.736  0.0000E+00  0.0000E+00  0.0000E+00  0.0000E+00  0.0000E+00  0.0000E+00  0.0000E+00  0.0000E+00  0.0000E+00  0.0000E+00  0.0000E+00  0.0000E+00  0.0000E+00  0.0000E+00  0.0000E+00  0.0000E+00  0.0000E+00  0.0000E+00
    -22.605  0.0000E+00  0.0000E+00  0.0000E+00  0.0000E+00  0.0000E+00  0.0000E+00  0.0000E+00  0.0000E+00  0.0000E+00  0.0000E+00  0.0000E+00  0.0000E+00  0.0000E+00  0.0000E+00  0.0000E+00  0.0000E+00  0.0000E+00  0.0000E+00
    -22.473  0.0000E+00  0.0000E+00  0.0000E+00  0.0000E+00  0.0000E+00  0.0000E+00  0.0000E+00  0.0000E+00  0.0000E+00  0.0000E+00  0.0000E+00  0.0000E+00  0.0000E+00  0.0000E+00  0.0000E+00  0.0000E+00  0.0000E+00  0.0000E+00
    -22.341  0.0000E+00  0.0000E+00  0.0000E+00  0.0000E+00  0.0000E+00  0.0000E+00  0.0000E+00  0.0000E+00  0.0000E+00  0.0000E+00  0.0000E+00  0.0000E+00  0.0000E+00  0.0000E+00  0.0000E+00  0.0000E+00  0.0000E+00  0.0000E+00
    -22.209  0.0000E+00  0.0000E+00  0.0000E+00  0.0000E+00  0.0000E+00  0.0000E+00  0.0000E+00  0.0000E+00  0.0000E+00  0.0000E+00  0.0000E+00  0.0000E+00  0.0000E+00  0.0000E+00  0.0000E+00  0.0000E+00  0.0000E+00  0.0000E+00
    -22.077  0.6887E-09  0.7006E-09  0.2082E-03  0.2117E-03  0.1564E-06  0.1571E-06  0.2082E-03  0.2117E-03  0.4995E-10  0.5076E-10  0.4597E-11  0.4658E-11  0.2649E-09  0.2695E-09  0.4597E-11  0.4658E-11  0.7459E-09  0.7587E-09
    -21.946  0.1074E-07  0.1093E-07  0.3428E-02  0.3486E-02  0.3234E-03  0.3234E-03  0.3428E-02  0.3486E-02  0.7423E-09  0.7541E-09  0.1087E-09  0.1095E-09  0.4140E-08  0.4212E-08  0.1087E-09  0.1095E-09  0.1186E-07  0.1206E-07
    -21.814  0.1471E-06  0.1496E-06  0.4673E-01  0.4752E-01  0.4190E-02  0.4191E-02  0.4673E-01  0.4752E-01  0.1017E-07  0.1033E-07  0.1460E-08  0.1471E-08  0.5667E-07  0.5765E-07  0.1460E-08  0.1471E-08  0.1622E-06  0.1650E-06
    -21.682  0.1863E-05  0.1892E-05  0.5854E+00  0.5943E+00  0.5795E-01  0.5796E-01  0.5854E+00  0.5943E+00  0.1262E-06  0.1280E-06  0.1892E-07  0.1903E-07  0.7183E-06  0.7295E-06  0.1892E-07  0.1903E-07  0.2060E-05  0.2093E-05
    -21.550  0.1121E-04  0.1128E-04  0.3374E+01  0.3394E+01  0.7206E+00  0.7207E+00  0.3374E+01  0.3394E+01  0.6806E-06  0.6834E-06  0.1557E-06  0.1556E-06  0.4328E-05  0.4356E-05  0.1557E-06  0.1556E-06  0.1260E-04  0.1268E-04
    -21.418  0.9757E-05  0.9682E-05  0.2958E+01  0.2936E+01  0.3825E+01  0.3825E+01  0.2958E+01  0.2936E+01  0.5472E-06  0.5422E-06  0.5376E-06  0.5366E-06  0.3779E-05  0.3751E-05  0.5376E-06  0.5366E-06  0.1108E-04  0.1100E-04
    -21.287  0.1439E-05  0.1418E-05  0.4329E+00  0.4262E+00  0.2513E+01  0.2513E+01  0.4329E+00  0.4262E+00  0.9028E-07  0.8905E-07  0.3164E-06  0.3160E-06  0.5615E-06  0.5534E-06  0.3164E-06  0.3160E-06  0.1550E-05  0.1527E-05
    -21.155  0.6715E-07  0.6623E-07  0.2260E-01  0.2217E-01  0.2908E+00  0.2907E+00  0.2260E-01  0.2217E-01  0.5151E-08  0.5094E-08  0.3550E-07  0.3546E-07  0.2674E-07  0.2636E-07  0.3550E-07  0.3546E-07  0.7211E-07  0.7015E-07
    -21.023  0.0000E+00  0.0000E+00  0.0000E+00  0.0000E+00  0.0000E+00  0.0000E+00  0.0000E+00  0.0000E+00  0.0000E+00  0.0000E+00  0.0000E+00  0.0000E+00  0.0000E+00  0.0000E+00  0.0000E+00  0.0000E+00  0.0000E+00  0.0000E+00
    -20.891  0.0000E+00  0.0000E+00  0.0000E+00  0.0000E+00  0.0000E+00  0.0000E+00  0.0000E+00  0.0000E+00  0.0000E+00  0.0000E+00  0.0000E+00  0.0000E+00  0.0000E+00  0.0000E+00  0.0000E+00  0.0000E+00  0.0000E+00  0.0000E+00
    -20.759  0.0000E+00  0.0000E+00  0.0000E+00  0.0000E+00  0.0000E+00  0.0000E+00  0.0000E+00  0.0000E+00  0.0000E+00  0.0000E+00  0.0000E+00  0.0000E+00  0.0000E+00  0.0000E+00  0.0000E+00  0.0000E+00  0.0000E+00  0.0000E+00
    -20.628  0.0000E+00  0.0000E+00  0.0000E+00  0.0000E+00  0.0000E+00  0.0000E+00  0.0000E+00  0.0000E+00  0.0000E+00  0.0000E+00  0.0000E+00  0.0000E+00  0.0000E+00  0.0000E+00  0.0000E+00  0.0000E+00  0.0000E+00  0.0000E+00
    -20.496  0.0000E+00  0.0000E+00  0.0000E+00  0.0000E+00  0.0000E+00  0.0000E+00  0.0000E+00  0.0000E+00  0.0000E+00  0.0000E+00  0.0000E+00  0.0000E+00  0.0000E+00  0.0000E+00  0.0000E+00  0.0000E+00  0.0000E+00  0.0000E+00
    -20.364  0.0000E+00  0.0000E+00  0.0000E+00  0.0000E+00  0.0000E+00  0.0000E+00  0.0000E+00  0.0000E+00  0.0000E+00  0.0000E+00  0.0000E+00  0.0000E+00  0.0000E+00  0.0000E+00  0.0000E+00  0.0000E+00  0.0000E+00  0.0000E+00
    -20.232  0.0000E+00  0.0000E+00  0.0000E+00  0.0000E+00  0.0000E+00  0.0000E+00  0.0000E+00  0.0000E+00  0.0000E+00  0.0000E+00  0.0000E+00  0.0000E+00  0.0000E+00  0.0000E+00  0.0000E+00  0.0000E+00  0.0000E+00  0.0000E+00
    -20.100  0.0000E+00  0.0000E+00  0.0000E+00  0.0000E+00  0.0000E+00  0.0000E+00  0.0000E+00  0.0000E+00  0.0000E+00  0.0000E+00  0.0000E+00  0.0000E+00  0.0000E+00  0.0000E+00  0.0000E+00  0.0000E+00  0.0000E+00  0.0000E+00
    -19.968  0.0000E+00  0.0000E+00  0.0000E+00  0.0000E+00  0.0000E+00  0.0000E+00  0.0000E+00  0.0000E+00  0.0000E+00  0.0000E+00  0.0000E+00  0.0000E+00  0.0000E+00  0.0000E+00  0.0000E+00  0.0000E+00  0.0000E+00  0.0000E+00
    -19.837  0.0000E+00  0.0000E+00  0.0000E+00  0.0000E+00  0.0000E+00  0.0000E+00  0.0000E+00  0.0000E+00  0.0000E+00  0.0000E+00  0.0000E+00  0.0000E+00  0.0000E+00  0.0000E+00  0.0000E+00  0.0000E+00  0.0000E+00  0.0000E+00
    -19.705  0.0000E+00  0.0000E+00  0.0000E+00  0.0000E+00  0.0000E+00  0.0000E+00  0.0000E+00  0.0000E+00  0.0000E+00  0.0000E+00  0.0000E+00  0.0000E+00  0.0000E+00  0.0000E+00  0.0000E+00  0.0000E+00  0.0000E+00  0.0000E+00
    -19.573  0.0000E+00  0.0000E+00  0.0000E+00  0.0000E+00  0.0000E+00  0.0000E+00  0.0000E+00  0.0000E+00  0.0000E+00  0.0000E+00  0.0000E+00  0.0000E+00  0.0000E+00  0.0000E+00  0.0000E+00  0.0000E+00  0.0000E+00  0.0000E+00
    -19.441  0.0000E+00  0.0000E+00  0.0000E+00  0.0000E+00  0.0000E+00  0.0000E+00  0.0000E+00  0.0000E+00  0.0000E+00  0.0000E+00  0.0000E+00  0.0000E+00  0.0000E+00  0.0000E+00  0.0000E+00  0.0000E+00  0.0000E+00  0.0000E+00
    -19.309  0.0000E+00  0.0000E+00  0.0000E+00  0.0000E+00  0.0000E+00  0.0000E+00  0.0000E+00  0.0000E+00  0.0000E+00  0.0000E+00  0.0000E+00  0.0000E+00  0.0000E+00  0.0000E+00  0.0000E+00  0.0000E+00  0.0000E+00  0.0000E+00
    -19.178  0.0000E+00  0.0000E+00  0.0000E+00  0.0000E+00  0.0000E+00  0.0000E+00  0.0000E+00  0.0000E+00  0.0000E+00  0.0000E+00  0.0000E+00  0.0000E+00  0.0000E+00  0.0000E+00  0.0000E+00  0.0000E+00  0.0000E+00  0.0000E+00
    -19.046  0.0000E+00  0.0000E+00  0.0000E+00  0.0000E+00  0.0000E+00  0.0000E+00  0.0000E+00  0.0000E+00  0.0000E+00  0.0000E+00  0.0000E+00  0.0000E+00  0.0000E+00  0.0000E+00  0.0000E+00  0.0000E+00  0.0000E+00  0.0000E+00
    -18.914  0.0000E+00  0.0000E+00  0.0000E+00  0.0000E+00  0.0000E+00  0.0000E+00  0.0000E+00  0.0000E+00  0.0000E+00  0.0000E+00  0.0000E+00  0.0000E+00  0.0000E+00  0.0000E+00  0.0000E+00  0.0000E+00  0.0000E+00  0.0000E+00
    -18.782  0.0000E+00  0.0000E+00  0.0000E+00  0.0000E+00  0.0000E+00  0.0000E+00  0.0000E+00  0.0000E+00  0.0000E+00  0.0000E+00  0.0000E+00  0.0000E+00  0.0000E+00  0.0000E+00  0.0000E+00  0.0000E+00  0.0000E+00  0.0000E+00
    -18.650  0.0000E+00  0.0000E+00  0.0000E+00  0.0000E+00  0.0000E+00  0.0000E+00  0.0000E+00  0.0000E+00  0.0000E+00  0.0000E+00  0.0000E+00  0.0000E+00  0.0000E+00  0.0000E+00  0.0000E+00  0.0000E+00  0.0000E+00  0.0000E+00
    -18.519  0.0000E+00  0.0000E+00  0.0000E+00  0.0000E+00  0.0000E+00  0.0000E+00  0.0000E+00  0.0000E+00  0.0000E+00  0.0000E+00  0.0000E+00  0.0000E+00  0.0000E+00  0.0000E+00  0.0000E+00  0.0000E+00  0.0000E+00  0.0000E+00
    -18.387  0.0000E+00  0.0000E+00  0.0000E+00  0.0000E+00  0.0000E+00  0.0000E+00  0.0000E+00  0.0000E+00  0.0000E+00  0.0000E+00  0.0000E+00  0.0000E+00  0.0000E+00  0.0000E+00  0.0000E+00  0.0000E+00  0.0000E+00  0.0000E+00
    -18.255  0.0000E+00  0.0000E+00  0.0000E+00  0.0000E+00  0.0000E+00  0.0000E+00  0.0000E+00  0.0000E+00  0.0000E+00  0.0000E+00  0.0000E+00  0.0000E+00  0.0000E+00  0.0000E+00  0.0000E+00  0.0000E+00  0.0000E+00  0.0000E+00
    -18.123  0.0000E+00  0.0000E+00  0.0000E+00  0.0000E+00  0.0000E+00  0.0000E+00  0.0000E+00  0.0000E+00  0.0000E+00  0.0000E+00  0.0000E+00  0.0000E+00  0.0000E+00  0.0000E+00  0.0000E+00  0.0000E+00  0.0000E+00  0.0000E+00
    -17.991  0.0000E+00  0.0000E+00  0.0000E+00  0.0000E+00  0.0000E+00  0.0000E+00  0.0000E+00  0.0000E+00  0.0000E+00  0.0000E+00  0.0000E+00  0.0000E+00  0.0000E+00  0.0000E+00  0.0000E+00  0.0000E+00  0.0000E+00  0.0000E+00
    -17.860  0.0000E+00  0.0000E+00  0.0000E+00  0.0000E+00  0.0000E+00  0.0000E+00  0.0000E+00  0.0000E+00  0.0000E+00  0.0000E+00  0.0000E+00  0.0000E+00  0.0000E+00  0.0000E+00  0.0000E+00  0.0000E+00  0.0000E+00  0.0000E+00
    -17.728  0.0000E+00  0.0000E+00  0.0000E+00  0.0000E+00  0.0000E+00  0.0000E+00  0.0000E+00  0.0000E+00  0.0000E+00  0.0000E+00  0.0000E+00  0.0000E+00  0.0000E+00  0.0000E+00  0.0000E+00  0.0000E+00  0.0000E+00  0.0000E+00
    -17.596  0.0000E+00  0.0000E+00  0.0000E+00  0.0000E+00  0.0000E+00  0.0000E+00  0.0000E+00  0.0000E+00  0.0000E+00  0.0000E+00  0.0000E+00  0.0000E+00  0.0000E+00  0.0000E+00  0.0000E+00  0.0000E+00  0.0000E+00  0.0000E+00
    -17.464  0.0000E+00  0.0000E+00  0.0000E+00  0.0000E+00  0.0000E+00  0.0000E+00  0.0000E+00  0.0000E+00  0.0000E+00  0.0000E+00  0.0000E+00  0.0000E+00  0.0000E+00  0.0000E+00  0.0000E+00  0.0000E+00  0.0000E+00  0.0000E+00
    -17.332  0.0000E+00  0.0000E+00  0.0000E+00  0.0000E+00  0.0000E+00  0.0000E+00  0.0000E+00  0.0000E+00  0.0000E+00  0.0000E+00  0.0000E+00  0.0000E+00  0.0000E+00  0.0000E+00  0.0000E+00  0.0000E+00  0.0000E+00  0.0000E+00
    -17.201  0.0000E+00  0.0000E+00  0.0000E+00  0.0000E+00  0.0000E+00  0.0000E+00  0.0000E+00  0.0000E+00  0.0000E+00  0.0000E+00  0.0000E+00  0.0000E+00  0.0000E+00  0.0000E+00  0.0000E+00  0.0000E+00  0.0000E+00  0.0000E+00
    -17.069  0.0000E+00  0.0000E+00  0.0000E+00  0.0000E+00  0.0000E+00  0.0000E+00  0.0000E+00  0.0000E+00  0.0000E+00  0.0000E+00  0.0000E+00  0.0000E+00  0.0000E+00  0.0000E+00  0.0000E+00  0.0000E+00  0.0000E+00  0.0000E+00
    -16.937  0.0000E+00  0.0000E+00  0.0000E+00  0.0000E+00  0.0000E+00  0.0000E+00  0.0000E+00  0.0000E+00  0.0000E+00  0.0000E+00  0.0000E+00  0.0000E+00  0.0000E+00  0.0000E+00  0.0000E+00  0.0000E+00  0.0000E+00  0.0000E+00
    -16.805  0.0000E+00  0.0000E+00  0.0000E+00  0.0000E+00  0.0000E+00  0.0000E+00  0.0000E+00  0.0000E+00  0.0000E+00  0.0000E+00  0.0000E+00  0.0000E+00  0.0000E+00  0.0000E+00  0.0000E+00  0.0000E+00  0.0000E+00  0.0000E+00