   8   8   1   0
  0.2259473E+02  0.4487685E-09  0.4487685E-09  0.8975371E-09  0.5000000E-15
  1.000000000000000E-004
  CAR 
 unknown system                          
     10.66547991    -28.19839238  301      4.83832072      1.00000000
    -28.198  0.0000E+00  0.0000E+00  0.0000E+00  0.0000E+00
    -28.069  0.0000E+00  0.0000E+00  0.0000E+00  0.0000E+00
    -27.939  0.0000E+00  0.0000E+00  0.0000E+00  0.0000E+00
    -27.810  0.0000E+00  0.0000E+00  0.0000E+00  0.0000E+00
    -27.680  0.0000E+00  0.0000E+00  0.0000E+00  0.0000E+00
    -27.551  0.0000E+00  0.0000E+00  0.0000E+00  0.0000E+00
    -27.421  0.0000E+00  0.0000E+00  0.0000E+00  0.0000E+00
    -27.292  0.0000E+00  0.0000E+00  0.0000E+00  0.0000E+00
    -27.162  0.0000E+00  0.0000E+00  0.0000E+00  0.0000E+00
    -27.032  0.0000E+00  0.0000E+00  0.0000E+00  0.0000E+00
    -26.903  0.2270E-02  0.2268E-02  0.2940E-03  0.2938E-03
    -26.773  0.2919E-01  0.2915E-01  0.4076E-02  0.4071E-02
    -26.644  0.3835E+00  0.3830E+00  0.5375E-01  0.5368E-01
    -26.514  0.4384E+01  0.4379E+01  0.6217E+00  0.6210E+00
    -26.385  0.1920E+02  0.1918E+02  0.3109E+01  0.3105E+01
    -26.255  0.1691E+02  0.1690E+02  0.5300E+01  0.5294E+01
    -26.126  0.4879E+01  0.4914E+01  0.5932E+01  0.5931E+01
    -25.996  0.4186E+00  0.4238E+00  0.5995E+01  0.5995E+01
    -25.867  0.0000E+00  0.0000E+00  0.6000E+01  0.6000E+01
    -25.737  0.0000E+00  0.0000E+00  0.6000E+01  0.6000E+01
    -25.607  0.0000E+00  0.0000E+00  0.6000E+01  0.6000E+01
    -25.478  0.0000E+00  0.0000E+00  0.6000E+01  0.6000E+01
    -25.348  0.0000E+00  0.0000E+00  0.6000E+01  0.6000E+01
    -25.219  0.0000E+00  0.0000E+00  0.6000E+01  0.6000E+01
    -25.089  0.0000E+00  0.0000E+00  0.6000E+01  0.6000E+01
    -24.960  0.0000E+00  0.0000E+00  0.6000E+01  0.6000E+01
    -24.830  0.0000E+00  0.0000E+00  0.6000E+01  0.6000E+01
    -24.701  0.0000E+00  0.0000E+00  0.6000E+01  0.6000E+01
    -24.571  0.0000E+00  0.0000E+00  0.6000E+01  0.6000E+01
    -24.442  0.0000E+00  0.0000E+00  0.6000E+01  0.6000E+01
    -24.312  0.0000E+00  0.0000E+00  0.6000E+01  0.6000E+01
    -24.182  0.0000E+00  0.0000E+00  0.6000E+01  0.6000E+01
    -24.053  0.0000E+00  0.0000E+00  0.6000E+01  0.6000E+01
    -23.923  0.0000E+00  0.0000E+00  0.6000E+01  0.6000E+01
    -23.794  0.0000E+00  0.0000E+00  0.6000E+01  0.6000E+01
    -23.664  0.0000E+00  0.0000E+00  0.6000E+01  0.6000E+01
    -23.535  0.0000E+00  0.0000E+00  0.6000E+01  0.6000E+01
    -23.405  0.0000E+00  0.0000E+00  0.6000E+01  0.6000E+01
    -23.276  0.0000E+00  0.0000E+00  0.6000E+01  0.6000E+01
    -23.146  0.0000E+00  0.0000E+00  0.6000E+01  0.6000E+01
    -23.017  0.0000E+00  0.0000E+00  0.6000E+01  0.6000E+01
    -22.887  0.0000E+00  0.0000E+00  0.6000E+01  0.6000E+01
    -22.757  0.0000E+00  0.0000E+00  0.6000E+01  0.6000E+01
    -22.628  0.0000E+00  0.0000E+00  0.6000E+01  0.6000E+01
    -22.498  0.0000E+00  0.0000E+00  0.6000E+01  0.6000E+01
    -22.369  0.0000E+00  0.0000E+00  0.6000E+01  0.6000E+01
    -22.239  0.0000E+00  0.0000E+00  0.6000E+01  0.6000E+01
    -22.110  0.0000E+00  0.0000E+00  0.6000E+01  0.6000E+01
    -21.980  0.0000E+00  0.0000E+00  0.6000E+01  0.6000E+01
    -21.851  0.0000E+00  0.0000E+00  0.6000E+01  0.6000E+01
    -21.721  0.0000E+00  0.0000E+00  0.6000E+01  0.6000E+01
    -21.592  0.0000E+00  0.0000E+00  0.6000E+01  0.6000E+01
    -21.462  0.0000E+00  0.0000E+00  0.6000E+01  0.6000E+01
    -21.332  0.0000E+00  0.0000E+00  0.6000E+01  0.6000E+01
    -21.203  0.0000E+00  0.0000E+00  0.6000E+01  0.6000E+01
    -21.073  0.0000E+00  0.0000E+00  0.6000E+01  0.6000E+01
    -20.944  0.0000E+00  0.0000E+00  0.6000E+01  0.6000E+01
    -20.814  0.0000E+00  0.0000E+00  0.6000E+01  0.6000E+01
    -20.685  0.0000E+00  0.0000E+00  0.6000E+01  0.6000E+01
    -20.555  0.0000E+00  0.0000E+00  0.6000E+01  0.6000E+01
    -20.426  0.0000E+00  0.0000E+00  0.6000E+01  0.6000E+01
    -20.296  0.0000E+00  0.0000E+00  0.6000E+01  0.6000E+01
    -20.167  0.0000E+00  0.0000E+00  0.6000E+01  0.6000E+01
    -20.037  0.0000E+00  0.0000E+00  0.6000E+01  0.6000E+01
    -19.907  0.0000E+00  0.0000E+00  0.6000E+01  0.6000E+01
    -19.778  0.0000E+00  0.0000E+00  0.6000E+01  0.6000E+01
    -19.648  0.0000E+00  0.0000E+00  0.6000E+01  0.6000E+01
    -19.519  0.0000E+00  0.0000E+00  0.6000E+01  0.6000E+01
    -19.389  0.0000E+00  0.0000E+00  0.6000E+01  0.6000E+01
    -19.260  0.0000E+00  0.0000E+00  0.6000E+01  0.6000E+01
    -19.130  0.0000E+00  0.0000E+00  0.6000E+01  0.6000E+01
    -19.001  0.0000E+00  0.0000E+00  0.6000E+01  0.6000E+01
    -18.871  0.0000E+00  0.0000E+00  0.6000E+01  0.6000E+01
    -18.742  0.0000E+00  0.0000E+00  0.6000E+01  0.6000E+01
    -18.612  0.0000E+00  0.0000E+00  0.6000E+01  0.6000E+01
    -18.482  0.0000E+00  0.0000E+00  0.6000E+01  0.6000E+01
    -18.353  0.0000E+00  0.0000E+00  0.6000E+01  0.6000E+01
    -18.223  0.0000E+00  0.0000E+00  0.6000E+01  0.6000E+01
    -18.094  0.0000E+00  0.0000E+00  0.6000E+01  0.6000E+01
    -17.964  0.0000E+00  0.0000E+00  0.6000E+01  0.6000E+01
    -17.835  0.0000E+00  0.0000E+00  0.6000E+01  0.6000E+01
    -17.705  0.0000E+00  0.0000E+00  0.6000E+01  0.6000E+01
    -17.576  0.0000E+00  0.0000E+00  0.6000E+01  0.6000E+01
    -17.446  0.0000E+00  0.0000E+00  0.6000E+01  0.6000E+01
    -17.317  0.0000E+00  0.0000E+00  0.6000E+01  0.6000E+01
    -17.187  0.0000E+00  0.0000E+00  0.6000E+01  0.6000E+01
    -17.057  0.0000E+00  0.0000E+00  0.6000E+01  0.6000E+01
    -16.928  0.0000E+00  0.0000E+00  0.6000E+01  0.6000E+01
    -16.798  0.0000E+00  0.0000E+00  0.6000E+01  0.6000E+01
    -16.669  0.0000E+00  0.0000E+00  0.6000E+01  0.6000E+01
    -16.539  0.0000E+00  0.0000E+00  0.6000E+01  0.6000E+01
    -16.410  0.0000E+00  0.0000E+00  0.6000E+01  0.6000E+01
    -16.280  0.0000E+00  0.0000E+00  0.6000E+01  0.6000E+01
    -16.151  0.0000E+00  0.0000E+00  0.6000E+01  0.6000E+01
    -16.021  0.0000E+00  0.0000E+00  0.6000E+01  0.6000E+01
    -15.891  0.0000E+00  0.0000E+00  0.6000E+01  0.6000E+01
    -15.762  0.0000E+00  0.0000E+00  0.6000E+01  0.6000E+01
    -15.632  0.0000E+00  0.0000E+00  0.6000E+01  0.6000E+01
    -15.503  0.0000E+00  0.0000E+00  0.6000E+01  0.6000E+01
    -15.373  0.0000E+00  0.0000E+00  0.6000E+01  0.6000E+01
    -15.244  0.0000E+00  0.0000E+00  0.6000E+01  0.6000E+01
    -15.114  0.0000E+00  0.0000E+00  0.6000E+01  0.6000E+01
    -14.985  0.0000E+00  0.0000E+00  0.6000E+01  0.6000E+01
    -14.855  0.0000E+00  0.0000E+00  0.6000E+01  0.6000E+01
    -14.726  0.0000E+00  0.0000E+00  0.6000E+01  0.6000E+01
    -14.596  0.0000E+00  0.0000E+00  0.6000E+01  0.6000E+01
    -14.466  0.0000E+00  0.0000E+00  0.6000E+01  0.6000E+01
    -14.337  0.0000E+00  0.0000E+00  0.6000E+01  0.6000E+01
    -14.207  0.0000E+00  0.0000E+00  0.6000E+01  0.6000E+01
    -14.078  0.0000E+00  0.0000E+00  0.6000E+01  0.6000E+01
    -13.948  0.0000E+00  0.0000E+00  0.6000E+01  0.6000E+01
    -13.819  0.0000E+00  0.0000E+00  0.6000E+01  0.6000E+01
    -13.689  0.0000E+00  0.0000E+00  0.6000E+01  0.6000E+01
    -13.560  0.0000E+00  0.0000E+00  0.6000E+01  0.6000E+01
    -13.430  0.0000E+00  0.0000E+00  0.6000E+01  0.6000E+01
    -13.301  0.0000E+00  0.0000E+00  0.6000E+01  0.6000E+01
    -13.171  0.0000E+00  0.0000E+00  0.6000E+01  0.6000E+01
    -13.041  0.0000E+00  0.0000E+00  0.6000E+01  0.6000E+01
    -12.912  0.0000E+00  0.0000E+00  0.6000E+01  0.6000E+01
    -12.782  0.0000E+00  0.0000E+00  0.6000E+01  0.6000E+01
    -12.653  0.0000E+00  0.0000E+00  0.6000E+01  0.6000E+01
    -12.523  0.0000E+00  0.0000E+00  0.6000E+01  0.6000E+01
    -12.394  0.0000E+00  0.0000E+00  0.6000E+01  0.6000E+01
    -12.264  0.0000E+00  0.0000E+00  0.6000E+01  0.6000E+01
    -12.135  0.0000E+00  0.0000E+00  0.6000E+01  0.6000E+01
    -12.005  0.0000E+00  0.0000E+00  0.6000E+01  0.6000E+01
    -11.876  0.0000E+00  0.0000E+00  0.6000E+01  0.6000E+01
    -11.746  0.0000E+00  0.0000E+00  0.6000E+01  0.6000E+01
    -11.616  0.0000E+00  0.0000E+00  0.6000E+01  0.6000E+01
    -11.487  0.0000E+00  0.0000E+00  0.6000E+01  0.6000E+01
    -11.357  0.0000E+00  0.0000E+00  0.6000E+01  0.6000E+01
    -11.228  0.0000E+00  0.0000E+00  0.6000E+01  0.6000E+01
    -11.098  0.0000E+00  0.0000E+00  0.6000E+01  0.6000E+01
    -10.969  0.0000E+00  0.0000E+00  0.6000E+01  0.6000E+01
    -10.839  0.0000E+00  0.0000E+00  0.6000E+01  0.6000E+01
    -10.710  0.0000E+00  0.0000E+00  0.6000E+01  0.6000E+01
    -10.580  0.0000E+00  0.0000E+00  0.6000E+01  0.6000E+01
    -10.451  0.0000E+00  0.0000E+00  0.6000E+01  0.6000E+01
    -10.321  0.0000E+00  0.0000E+00  0.6000E+01  0.6000E+01
    -10.191  0.0000E+00  0.0000E+00  0.6000E+01  0.6000E+01
    -10.062  0.0000E+00  0.0000E+00  0.6000E+01  0.6000E+01
     -9.932  0.0000E+00  0.0000E+00  0.6000E+01  0.6000E+01
     -9.803  0.0000E+00  0.0000E+00  0.6000E+01  0.6000E+01
     -9.673  0.0000E+00  0.0000E+00  0.6000E+01  0.6000E+01
     -9.544  0.0000E+00  0.0000E+00  0.6000E+01  0.6000E+01
     -9.414  0.0000E+00  0.0000E+00  0.6000E+01  0.6000E+01
     -9.285  0.0000E+00  0.0000E+00  0.6000E+01  0.6000E+01
     -9.155  0.0000E+00  0.0000E+00  0.6000E+01  0.6000E+01
     -9.026  0.0000E+00  0.0000E+00  0.6000E+01  0.6000E+01
     -8.896  0.0000E+00  0.0000E+00  0.6000E+01  0.6000E+01
     -8.766  0.0000E+00  0.0000E+00  0.6000E+01  0.6000E+01
     -8.637  0.0000E+00  0.0000E+00  0.6000E+01  0.6000E+01
     -8.507  0.0000E+00  0.0000E+00  0.6000E+01  0.6000E+01
     -8.378  0.0000E+00  0.0000E+00  0.6000E+01  0.6000E+01
     -8.248  0.0000E+00  0.0000E+00  0.6000E+01  0.6000E+01
     -8.119  0.0000E+00  0.0000E+00  0.6000E+01  0.6000E+01
     -7.989  0.0000E+00  0.0000E+00  0.6000E+01  0.6000E+01
     -7.860  0.0000E+00  0.0000E+00  0.6000E+01  0.6000E+01
     -7.730  0.0000E+00  0.0000E+00  0.6000E+01  0.6000E+01
     -7.601  0.0000E+00  0.0000E+00  0.6000E+01  0.6000E+01
     -7.471  0.0000E+00  0.0000E+00  0.6000E+01  0.6000E+01
     -7.341  0.0000E+00  0.0000E+00  0.6000E+01  0.6000E+01
     -7.212  0.0000E+00  0.0000E+00  0.6000E+01  0.6000E+01
     -7.082  0.0000E+00  0.0000E+00  0.6000E+01  0.6000E+01
     -6.953  0.0000E+00  0.0000E+00  0.6000E+01  0.6000E+01
     -6.823  0.0000E+00  0.0000E+00  0.6000E+01  0.6000E+01
     -6.694  0.0000E+00  0.0000E+00  0.6000E+01  0.6000E+01
     -6.564  0.0000E+00  0.0000E+00  0.6000E+01  0.6000E+01
     -6.435  0.0000E+00  0.0000E+00  0.6000E+01  0.6000E+01
     -6.305  0.0000E+00  0.0000E+00  0.6000E+01  0.6000E+01
     -6.176  0.0000E+00  0.0000E+00  0.6000E+01  0.6000E+01
     -6.046  0.0000E+00  0.0000E+00  0.6000E+01  0.6000E+01
     -5.916  0.0000E+00  0.0000E+00  0.6000E+01  0.6000E+01
     -5.787  0.0000E+00  0.0000E+00  0.6000E+01  0.6000E+01
     -5.657  0.0000E+00  0.0000E+00  0.6000E+01  0.6000E+01
     -5.528  0.0000E+00  0.0000E+00  0.6000E+01  0.6000E+01
     -5.398  0.0000E+00  0.0000E+00  0.6000E+01  0.6000E+01
     -5.269  0.0000E+00  0.0000E+00  0.6000E+01  0.6000E+01
     -5.139  0.0000E+00  0.0000E+00  0.6000E+01  0.6000E+01
     -5.010  0.0000E+00  0.0000E+00  0.6000E+01  0.6000E+01
     -4.880  0.0000E+00  0.0000E+00  0.6000E+01  0.6000E+01
     -4.751  0.0000E+00  0.0000E+00  0.6000E+01  0.6000E+01
     -4.621  0.0000E+00  0.0000E+00  0.6000E+01  0.6000E+01
     -4.491  0.0000E+00  0.0000E+00  0.6000E+01  0.6000E+01
     -4.362  0.0000E+00  0.0000E+00  0.6000E+01  0.6000E+01
     -4.232  0.3142E-05  0.3162E-05  0.6000E+01  0.6000E+01
     -4.103  0.7291E-04  0.7337E-04  0.6000E+01  0.6000E+01
     -3.973  0.9729E-03  0.9790E-03  0.6000E+01  0.6000E+01
     -3.844  0.1169E-01  0.1176E-01  0.6002E+01  0.6002E+01
     -3.714  0.7846E-01  0.7872E-01  0.6012E+01  0.6012E+01
     -3.585  0.1948E+00  0.1951E+00  0.6037E+01  0.6037E+01
     -3.455  0.2844E+00  0.2846E+00  0.6074E+01  0.6074E+01
     -3.326  0.3594E+00  0.3596E+00  0.6120E+01  0.6121E+01
     -3.196  0.4175E+00  0.4176E+00  0.6175E+01  0.6175E+01
     -3.066  0.4475E+00  0.4476E+00  0.6233E+01  0.6233E+01
     -2.937  0.5406E+00  0.5409E+00  0.6303E+01  0.6303E+01
     -2.807  0.5614E+00  0.5613E+00  0.6375E+01  0.6376E+01
     -2.678  0.5725E+00  0.5727E+00  0.6450E+01  0.6450E+01
     -2.548  0.6861E+00  0.6864E+00  0.6539E+01  0.6539E+01
     -2.419  0.6833E+00  0.6833E+00  0.6627E+01  0.6628E+01
     -2.289  0.7358E+00  0.7361E+00  0.6723E+01  0.6723E+01
     -2.160  0.7537E+00  0.7536E+00  0.6821E+01  0.6821E+01
     -2.030  0.8189E+00  0.8195E+00  0.6927E+01  0.6927E+01
     -1.901  0.9385E+00  0.9385E+00  0.7049E+01  0.7049E+01
     -1.771  0.8510E+00  0.8510E+00  0.7159E+01  0.7160E+01
     -1.641  0.9342E+00  0.9347E+00  0.7280E+01  0.7281E+01
     -1.512  0.1022E+01  0.1022E+01  0.7413E+01  0.7413E+01
     -1.382  0.1061E+01  0.1061E+01  0.7551E+01  0.7551E+01
     -1.253  0.1026E+01  0.1026E+01  0.7684E+01  0.7684E+01
     -1.123  0.1064E+01  0.1064E+01  0.7822E+01  0.7822E+01
     -0.994  0.1161E+01  0.1161E+01  0.7972E+01  0.7973E+01
     -0.864  0.1172E+01  0.1172E+01  0.8124E+01  0.8125E+01
     -0.735  0.1246E+01  0.1246E+01  0.8286E+01  0.8287E+01
     -0.605  0.1327E+01  0.1327E+01  0.8458E+01  0.8459E+01
     -0.475  0.1223E+01  0.1222E+01  0.8617E+01  0.8617E+01
     -0.346  0.1133E+01  0.1132E+01  0.8764E+01  0.8764E+01
     -0.216  0.1073E+01  0.1072E+01  0.8903E+01  0.8903E+01
     -0.087  0.1140E+01  0.1140E+01  0.9051E+01  0.9051E+01
      0.043  0.1333E+01  0.1333E+01  0.9224E+01  0.9224E+01
      0.172  0.1493E+01  0.1494E+01  0.9418E+01  0.9418E+01
      0.302  0.1646E+01  0.1646E+01  0.9631E+01  0.9632E+01
      0.431  0.1580E+01  0.1580E+01  0.9836E+01  0.9836E+01
      0.561  0.1454E+01  0.1454E+01  0.1002E+02  0.1003E+02
      0.690  0.1473E+01  0.1473E+01  0.1022E+02  0.1022E+02
      0.820  0.1554E+01  0.1554E+01  0.1042E+02  0.1042E+02
      0.950  0.1558E+01  0.1557E+01  0.1062E+02  0.1062E+02
      1.079  0.1312E+01  0.1311E+01  0.1079E+02  0.1079E+02
      1.209  0.1002E+01  0.1001E+01  0.1092E+02  0.1092E+02
      1.338  0.1151E+01  0.1152E+01  0.1107E+02  0.1107E+02
      1.468  0.1951E+01  0.1952E+01  0.1132E+02  0.1132E+02
      1.597  0.1439E+01  0.1438E+01  0.1151E+02  0.1151E+02
      1.727  0.1023E+01  0.1023E+01  0.1164E+02  0.1164E+02
      1.856  0.1398E+01  0.1398E+01  0.1182E+02  0.1182E+02
      1.986  0.1568E+01  0.1568E+01  0.1203E+02  0.1203E+02
      2.115  0.1616E+01  0.1617E+01  0.1224E+02  0.1224E+02
      2.245  0.1622E+01  0.1623E+01  0.1245E+02  0.1245E+02
      2.375  0.1880E+01  0.1882E+01  0.1269E+02  0.1269E+02
      2.504  0.2258E+01  0.2257E+01  0.1298E+02  0.1298E+02
      2.634  0.2087E+01  0.2086E+01  0.1325E+02  0.1325E+02
      2.763  0.1829E+01  0.1828E+01  0.1349E+02  0.1349E+02
      2.893  0.1716E+01  0.1716E+01  0.1371E+02  0.1371E+02
      3.022  0.1888E+01  0.1888E+01  0.1396E+02  0.1396E+02
      3.152  0.2172E+01  0.2171E+01  0.1424E+02  0.1424E+02
      3.281  0.2354E+01  0.2354E+01  0.1455E+02  0.1455E+02
      3.411  0.2768E+01  0.2768E+01  0.1490E+02  0.1490E+02
      3.540  0.3673E+01  0.3672E+01  0.1538E+02  0.1538E+02
      3.670  0.3133E+01  0.3131E+01  0.1579E+02  0.1579E+02
      3.800  0.2340E+01  0.2339E+01  0.1609E+02  0.1609E+02
      3.929  0.2300E+01  0.2299E+01  0.1639E+02  0.1639E+02
      4.059  0.2456E+01  0.2455E+01  0.1671E+02  0.1671E+02
      4.188  0.2588E+01  0.2585E+01  0.1704E+02  0.1704E+02
      4.318  0.2879E+01  0.2877E+01  0.1742E+02  0.1742E+02
      4.447  0.3087E+01  0.3082E+01  0.1782E+02  0.1782E+02
      4.577  0.3553E+01  0.3550E+01  0.1828E+02  0.1828E+02
      4.706  0.2978E+01  0.2980E+01  0.1867E+02  0.1866E+02
      4.836  0.2540E+01  0.2542E+01  0.1900E+02  0.1899E+02
      4.965  0.1989E+01  0.1992E+01  0.1925E+02  0.1925E+02
      5.095  0.1725E+01  0.1726E+01  0.1948E+02  0.1948E+02
      5.225  0.1655E+01  0.1656E+01  0.1969E+02  0.1969E+02
      5.354  0.1501E+01  0.1503E+01  0.1989E+02  0.1989E+02
      5.484  0.1684E+01  0.1684E+01  0.2011E+02  0.2011E+02
      5.613  0.2223E+01  0.2222E+01  0.2039E+02  0.2039E+02
      5.743  0.2570E+01  0.2571E+01  0.2073E+02  0.2073E+02
      5.872  0.2572E+01  0.2576E+01  0.2106E+02  0.2106E+02
      6.002  0.2391E+01  0.2392E+01  0.2137E+02  0.2137E+02
      6.131  0.2648E+01  0.2646E+01  0.2172E+02  0.2171E+02
      6.261  0.3427E+01  0.3424E+01  0.2216E+02  0.2216E+02
      6.390  0.3767E+01  0.3765E+01  0.2265E+02  0.2265E+02
      6.520  0.4050E+01  0.4048E+01  0.2317E+02  0.2317E+02
      6.650  0.4207E+01  0.4208E+01  0.2372E+02  0.2372E+02
      6.779  0.3863E+01  0.3863E+01  0.2422E+02  0.2422E+02
      6.909  0.4489E+01  0.4488E+01  0.2480E+02  0.2480E+02
      7.038  0.4688E+01  0.4693E+01  0.2541E+02  0.2541E+02
      7.168  0.3598E+01  0.3603E+01  0.2588E+02  0.2588E+02
      7.297  0.2646E+01  0.2638E+01  0.2622E+02  0.2622E+02
      7.427  0.2476E+01  0.2459E+01  0.2654E+02  0.2654E+02
      7.556  0.2748E+01  0.2727E+01  0.2690E+02  0.2689E+02
      7.686  0.2532E+01  0.2540E+01  0.2723E+02  0.2722E+02
      7.815  0.2081E+01  0.2143E+01  0.2750E+02  0.2750E+02
      7.945  0.1685E+01  0.1784E+01  0.2772E+02  0.2773E+02
      8.075  0.1176E+01  0.1167E+01  0.2787E+02  0.2789E+02
      8.204  0.5995E+00  0.5365E+00  0.2795E+02  0.2795E+02
      8.334  0.1688E+00  0.2166E+00  0.2797E+02  0.2798E+02
      8.463  0.1249E+00  0.1040E+00  0.2799E+02  0.2800E+02
      8.593  0.5874E-01  0.1856E-01  0.2800E+02  0.2800E+02
      8.722  0.2687E-01  0.1262E-02  0.2800E+02  0.2800E+02
      8.852  0.5249E-02  0.0000E+00  0.2800E+02  0.2800E+02
      8.981  0.3935E-02  0.0000E+00  0.2800E+02  0.2800E+02
      9.111  0.9596E-03  0.0000E+00  0.2800E+02  0.2800E+02
      9.240  0.8566E-04  0.0000E+00  0.2800E+02  0.2800E+02
      9.370  0.0000E+00  0.0000E+00  0.2800E+02  0.2800E+02
      9.500  0.0000E+00  0.0000E+00  0.2800E+02  0.2800E+02
      9.629  0.0000E+00  0.0000E+00  0.2800E+02  0.2800E+02
      9.759  0.0000E+00  0.0000E+00  0.2800E+02  0.2800E+02
      9.888  0.0000E+00  0.0000E+00  0.2800E+02  0.2800E+02
     10.018  0.0000E+00  0.0000E+00  0.2800E+02  0.2800E+02
     10.147  0.0000E+00  0.0000E+00  0.2800E+02  0.2800E+02
     10.277  0.0000E+00  0.0000E+00  0.2800E+02  0.2800E+02
     10.406  0.0000E+00  0.0000E+00  0.2800E+02  0.2800E+02
     10.536  0.0000E+00  0.0000E+00  0.2800E+02  0.2800E+02
     10.665  0.0000E+00  0.0000E+00  0.2800E+02  0.2800E+02
     10.66547991    -28.19839238  301      4.83832072      1.00000000
    -28.198  0.0000E+00  0.0000E+00  0.0000E+00  0.0000E+00  0.0000E+00  0.0000E+00  0.0000E+00  0.0000E+00  0.0000E+00  0.0000E+00  0.0000E+00  0.0000E+00  0.0000E+00  0.0000E+00  0.0000E+00  0.0000E+00  0.0000E+00  0.0000E+00
    -28.069  0.0000E+00  0.0000E+00  0.0000E+00  0.0000E+00  0.0000E+00  0.0000E+00  0.0000E+00  0.0000E+00  0.0000E+00  0.0000E+00  0.0000E+00  0.0000E+00  0.0000E+00  0.0000E+00  0.0000E+00  0.0000E+00  0.0000E+00  0.0000E+00
    -27.939  0.0000E+00  0.0000E+00  0.0000E+00  0.0000E+00  0.0000E+00  0.0000E+00  0.0000E+00  0.0000E+00  0.0000E+00  0.0000E+00  0.0000E+00  0.0000E+00  0.0000E+00  0.0000E+00  0.0000E+00  0.0000E+00  0.0000E+00  0.0000E+00
    -27.810  0.0000E+00  0.0000E+00  0.0000E+00  0.0000E+00  0.0000E+00  0.0000E+00  0.0000E+00  0.0000E+00  0.0000E+00  0.0000E+00  0.0000E+00  0.0000E+00  0.0000E+00  0.0000E+00  0.0000E+00  0.0000E+00  0.0000E+00  0.0000E+00
    -27.680  0.0000E+00  0.0000E+00  0.0000E+00  0.0000E+00  0.0000E+00  0.0000E+00  0.0000E+00  0.0000E+00  0.0000E+00  0.0000E+00  0.0000E+00  0.0000E+00  0.0000E+00  0.0000E+00  0.0000E+00  0.0000E+00  0.0000E+00  0.0000E+00
    -27.551  0.0000E+00  0.0000E+00  0.0000E+00  0.0000E+00  0.0000E+00  0.0000E+00  0.0000E+00  0.0000E+00  0.0000E+00  0.0000E+00  0.0000E+00  0.0000E+00  0.0000E+00  0.0000E+00  0.0000E+00  0.0000E+00  0.0000E+00  0.0000E+00
    -27.421  0.0000E+00  0.0000E+00  0.0000E+00  0.0000E+00  0.0000E+00  0.0000E+00  0.0000E+00  0.0000E+00  0.0000E+00  0.0000E+00  0.0000E+00  0.0000E+00  0.0000E+00  0.0000E+00  0.0000E+00  0.0000E+00  0.0000E+00  0.0000E+00
    -27.292  0.0000E+00  0.0000E+00  0.0000E+00  0.0000E+00  0.0000E+00  0.0000E+00  0.0000E+00  0.0000E+00  0.0000E+00  0.0000E+00  0.0000E+00  0.0000E+00  0.0000E+00  0.0000E+00  0.0000E+00  0.0000E+00  0.0000E+00  0.0000E+00
    -27.162  0.0000E+00  0.0000E+00  0.0000E+00  0.0000E+00  0.0000E+00  0.0000E+00  0.0000E+00  0.0000E+00  0.0000E+00  0.0000E+00  0.0000E+00  0.0000E+00  0.0000E+00  0.0000E+00  0.0000E+00  0.0000E+00  0.0000E+00  0.0000E+00
    -27.032  0.0000E+00  0.0000E+00  0.0000E+00  0.0000E+00  0.0000E+00  0.0000E+00  0.0000E+00  0.0000E+00  0.0000E+00  0.0000E+00  0.0000E+00  0.0000E+00  0.0000E+00  0.0000E+00  0.0000E+00  0.0000E+00  0.0000E+00  0.0000E+00
    -26.903  0.3042E-10  0.3039E-10  0.5569E-03  0.5564E-03  0.2106E-08  0.2084E-08  0.5569E-03  0.5564E-03  0.1316E-11  0.1306E-11  0.4944E-13  0.4795E-13  0.1160E-10  0.1159E-10  0.4944E-13  0.4795E-13  0.3444E-10  0.3440E-10
    -26.773  0.3754E-09  0.3749E-09  0.6867E-02  0.6861E-02  0.5919E-03  0.5843E-03  0.6867E-02  0.6861E-02  0.1625E-10  0.1612E-10  0.1406E-11  0.1368E-11  0.1431E-09  0.1430E-09  0.1406E-11  0.1368E-11  0.4246E-09  0.4242E-09
    -26.644  0.4943E-08  0.4938E-08  0.9043E-01  0.9036E-01  0.7297E-02  0.7205E-02  0.9043E-01  0.9036E-01  0.2139E-09  0.2123E-09  0.1784E-10  0.1736E-10  0.1885E-08  0.1883E-08  0.1784E-10  0.1736E-10  0.5592E-08  0.5586E-08
    -26.514  0.5620E-07  0.5614E-07  0.1028E+01  0.1027E+01  0.9603E-01  0.9483E-01  0.1028E+01  0.1027E+01  0.2426E-08  0.2407E-08  0.2201E-09  0.2143E-09  0.2143E-07  0.2141E-07  0.2201E-09  0.2143E-09  0.6359E-07  0.6353E-07
    -26.385  0.2284E-06  0.2283E-06  0.4170E+01  0.4170E+01  0.1082E+01  0.1070E+01  0.4170E+01  0.4170E+01  0.9753E-08  0.9682E-08  0.1818E-08  0.1775E-08  0.8704E-07  0.8702E-07  0.1818E-08  0.1775E-08  0.2584E-06  0.2584E-06
    -26.255  0.1133E-06  0.1134E-06  0.2043E+01  0.2044E+01  0.4209E+01  0.4202E+01  0.2043E+01  0.2044E+01  0.4861E-08  0.4822E-08  0.5821E-08  0.5741E-08  0.4292E-07  0.4292E-07  0.5821E-08  0.5741E-08  0.1266E-06  0.1267E-06
    -26.126  0.1277E-07  0.1280E-07  0.2188E+00  0.2190E+00  0.1956E+01  0.1973E+01  0.2188E+00  0.2190E+00  0.5807E-09  0.5743E-09  0.2635E-08  0.2627E-08  0.4725E-08  0.4722E-08  0.2635E-08  0.2627E-08  0.1356E-07  0.1357E-07
    -25.996  0.8884E-10  0.9170E-10  0.3852E-06  0.3864E-06  0.2053E+00  0.2079E+00  0.3852E-06  0.3864E-06  0.8575E-11  0.8261E-11  0.2744E-09  0.2746E-09  0.1826E-10  0.1771E-10  0.2744E-09  0.2746E-09  0.1929E-12  0.1963E-12
    -25.867  0.0000E+00  0.0000E+00  0.0000E+00  0.0000E+00  0.0000E+00  0.0000E+00  0.0000E+00  0.0000E+00  0.0000E+00  0.0000E+00  0.0000E+00  0.0000E+00  0.0000E+00  0.0000E+00  0.0000E+00  0.0000E+00  0.0000E+00  0.0000E+00
    -25.737  0.0000E+00  0.0000E+00  0.0000E+00  0.0000E+00  0.0000E+00  0.0000E+00  0.0000E+00  0.0000E+00  0.0000E+00  0.0000E+00  0.0000E+00  0.0000E+00  0.0000E+00  0.0000E+00  0.0000E+00  0.0000E+00  0.0000E+00  0.0000E+00
    -25.607  0.0000E+00  0.0000E+00  0.0000E+00  0.0000E+00  0.0000E+00  0.0000E+00  0.0000E+00  0.0000E+00  0.0000E+00  0.0000E+00  0.0000E+00  0.0000E+00  0.0000E+00  0.0000E+00  0.0000E+00  0.0000E+00  0.0000E+00  0.0000E+00
    -25.478  0.0000E+00  0.0000E+00  0.0000E+00  0.0000E+00  0.0000E+00  0.0000E+00  0.0000E+00  0.0000E+00  0.0000E+00  0.0000E+00  0.0000E+00  0.0000E+00  0.0000E+00  0.0000E+00  0.0000E+00  0.0000E+00  0.0000E+00  0.0000E+00
    -25.348  0.0000E+00  0.0000E+00  0.0000E+00  0.0000E+00  0.0000E+00  0.0000E+00  0.0000E+00  0.0000E+00  0.0000E+00  0.0000E+00  0.0000E+00  0.0000E+00  0.0000E+00  0.0000E+00  0.0000E+00  0.0000E+00  0.0000E+00  0.0000E+00
    -25.219  0.0000E+00  0.0000E+00  0.0000E+00  0.0000E+00  0.0000E+00  0.0000E+00  0.0000E+00  0.0000E+00  0.0000E+00  0.0000E+00  0.0000E+00  0.0000E+00  0.0000E+00  0.0000E+00  0.0000E+00  0.0000E+00  0.0000E+00  0.0000E+00
    -25.089  0.0000E+00  0.0000E+00  0.0000E+00  0.0000E+00  0.0000E+00  0.0000E+00  0.0000E+00  0.0000E+00  0.0000E+00  0.0000E+00  0.0000E+00  0.0000E+00  0.0000E+00  0.0000E+00  0.0000E+00  0.0000E+00  0.0000E+00  0.0000E+00
    -24.960  0.0000E+00  0.0000E+00  0.0000E+00  0.0000E+00  0.0000E+00  0.0000E+00  0.0000E+00  0.0000E+00  0.0000E+00  0.0000E+00  0.0000E+00  0.0000E+00  0.0000E+00  0.0000E+00  0.0000E+00  0.0000E+00  0.0000E+00  0.0000E+00
    -24.830  0.0000E+00  0.0000E+00  0.0000E+00  0.0000E+00  0.0000E+00  0.0000E+00  0.0000E+00  0.0000E+00  0.0000E+00  0.0000E+00  0.0000E+00  0.0000E+00  0.0000E+00  0.0000E+00  0.0000E+00  0.0000E+00  0.0000E+00  0.0000E+00
    -24.701  0.0000E+00  0.0000E+00  0.0000E+00  0.0000E+00  0.0000E+00  0.0000E+00  0.0000E+00  0.0000E+00  0.0000E+00  0.0000E+00  0.0000E+00  0.0000E+00  0.0000E+00  0.0000E+00  0.0000E+00  0.0000E+00  0.0000E+00  0.0000E+00
    -24.571  0.0000E+00  0.0000E+00  0.0000E+00  0.0000E+00  0.0000E+00  0.0000E+00  0.0000E+00  0.0000E+00  0.0000E+00  0.0000E+00  0.0000E+00  0.0000E+00  0.0000E+00  0.0000E+00  0.0000E+00  0.0000E+00  0.0000E+00  0.0000E+00
    -24.442  0.0000E+00  0.0000E+00  0.0000E+00  0.0000E+00  0.0000E+00  0.0000E+00  0.0000E+00  0.0000E+00  0.0000E+00  0.0000E+00  0.0000E+00  0.0000E+00  0.0000E+00  0.0000E+00  0.0000E+00  0.0000E+00  0.0000E+00  0.0000E+00
    -24.312  0.0000E+00  0.0000E+00  0.0000E+00  0.0000E+00  0.0000E+00  0.0000E+00  0.0000E+00  0.0000E+00  0.0000E+00  0.0000E+00  0.0000E+00  0.0000E+00  0.0000E+00  0.0000E+00  0.0000E+00  0.0000E+00  0.0000E+00  0.0000E+00
    -24.182  0.0000E+00  0.0000E+00  0.0000E+00  0.0000E+00  0.0000E+00  0.0000E+00  0.0000E+00  0.0000E+00  0.0000E+00  0.0000E+00  0.0000E+00  0.0000E+00  0.0000E+00  0.0000E+00  0.0000E+00  0.0000E+00  0.0000E+00  0.0000E+00
    -24.053  0.0000E+00  0.0000E+00  0.0000E+00  0.0000E+00  0.0000E+00  0.0000E+00  0.0000E+00  0.0000E+00  0.0000E+00  0.0000E+00  0.0000E+00  0.0000E+00  0.0000E+00  0.0000E+00  0.0000E+00  0.0000E+00  0.0000E+00  0.0000E+00
    -23.923  0.0000E+00  0.0000E+00  0.0000E+00  0.0000E+00  0.0000E+00  0.0000E+00  0.0000E+00  0.0000E+00  0.0000E+00  0.0000E+00  0.0000E+00  0.0000E+00  0.0000E+00  0.0000E+00  0.0000E+00  0.0000E+00  0.0000E+00  0.0000E+00
    -23.794  0.0000E+00  0.0000E+00  0.0000E+00  0.0000E+00  0.0000E+00  0.0000E+00  0.0000E+00  0.0000E+00  0.0000E+00  0.0000E+00  0.0000E+00  0.0000E+00  0.0000E+00  0.0000E+00  0.0000E+00  0.0000E+00  0.0000E+00  0.0000E+00
    -23.664  0.0000E+00  0.0000E+00  0.0000E+00  0.0000E+00  0.0000E+00  0.0000E+00  0.0000E+00  0.0000E+00  0.0000E+00  0.0000E+00  0.0000E+00  0.0000E+00  0.0000E+00  0.0000E+00  0.0000E+00  0.0000E+00  0.0000E+00  0.0000E+00
    -23.535  0.0000E+00  0.0000E+00  0.0000E+00  0.0000E+00  0.0000E+00  0.0000E+00  0.0000E+00  0.0000E+00  0.0000E+00  0.0000E+00  0.0000E+00  0.0000E+00  0.0000E+00  0.0000E+00  0.0000E+00  0.0000E+00  0.0000E+00  0.0000E+00
    -23.405  0.0000E+00  0.0000E+00  0.0000E+00  0.0000E+00  0.0000E+00  0.0000E+00  0.0000E+00  0.0000E+00  0.0000E+00  0.0000E+00  0.0000E+00  0.0000E+00  0.0000E+00  0.0000E+00  0.0000E+00  0.0000E+00  0.0000E+00  0.0000E+00
    -23.276  0.0000E+00  0.0000E+00  0.0000E+00  0.0000E+00  0.0000E+00  0.0000E+00  0.0000E+00  0.0000E+00  0.0000E+00  0.0000E+00  0.0000E+00  0.0000E+00  0.0000E+00  0.0000E+00  0.0000E+00  0.0000E+00  0.0000E+00  0.0000E+00
    -23.146  0.0000E+00  0.0000E+00  0.0000E+00  0.0000E+00  0.0000E+00  0.0000E+00  0.0000E+00  0.0000E+00  0.0000E+00  0.0000E+00  0.0000E+00  0.0000E+00  0.0000E+00  0.0000E+00  0.0000E+00  0.0000E+00  0.0000E+00  0.0000E+00
    -23.017  0.0000E+00  0.0000E+00  0.0000E+00  0.0000E+00  0.0000E+00  0.0000E+00  0.0000E+00  0.0000E+00  0.0000E+00  0.0000E+00  0.0000E+00  0.0000E+00  0.0000E+00  0.0000E+00  0.0000E+00  0.0000E+00  0.0000E+00  0.0000E+00
    -22.887  0.0000E+00  0.0000E+00  0.0000E+00  0.0000E+00  0.0000E+00  0.0000E+00  0.0000E+00  0.0000E+00  0.0000E+00  0.0000E+00  0.0000E+00  0.0000E+00  0.0000E+00  0.0000E+00  0.0000E+00  0.0000E+00  0.0000E+00  0.0000E+00
    -22.757  0.0000E+00  0.0000E+00  0.0000E+00  0.0000E+00  0.0000E+00  0.0000E+00  0.0000E+00  0.0000E+00  0.0000E+00  0.0000E+00  0.0000E+00  0.0000E+00  0.0000E+00  0.0000E+00  0.0000E+00  0.0000E+00  0.0000E+00  0.0000E+00
    -22.628  0.0000E+00  0.0000E+00  0.0000E+00  0.0000E+00  0.0000E+00  0.0000E+00  0.0000E+00  0.0000E+00  0.0000E+00  0.0000E+00  0.0000E+00  0.0000E+00  0.0000E+00  0.0000E+00  0.0000E+00  0.0000E+00  0.0000E+00  0.0000E+00
    -22.498  0.0000E+00  0.0000E+00  0.0000E+00  0.0000E+00  0.0000E+00  0.0000E+00  0.0000E+00  0.0000E+00  0.0000E+00  0.0000E+00  0.0000E+00  0.0000E+00  0.0000E+00  0.0000E+00  0.0000E+00  0.0000E+00  0.0000E+00  0.0000E+00
    -22.369  0.0000E+00  0.0000E+00  0.0000E+00  0.0000E+00  0.0000E+00  0.0000E+00  0.0000E+00  0.0000E+00  0.0000E+00  0.0000E+00  0.0000E+00  0.0000E+00  0.0000E+00  0.0000E+00  0.0000E+00  0.0000E+00  0.0000E+00  0.0000E+00
    -22.239  0.0000E+00  0.0000E+00  0.0000E+00  0.0000E+00  0.0000E+00  0.0000E+00  0.0000E+00  0.0000E+00  0.0000E+00  0.0000E+00  0.0000E+00  0.0000E+00  0.0000E+00  0.0000E+00  0.0000E+00  0.0000E+00  0.0000E+00  0.0000E+00
    -22.110  0.0000E+00  0.0000E+00  0.0000E+00  0.0000E+00  0.0000E+00  0.0000E+00  0.0000E+00  0.0000E+00  0.0000E+00  0.0000E+00  0.0000E+00  0.0000E+00  0.0000E+00  0.0000E+00  0.0000E+00  0.0000E+00  0.0000E+00  0.0000E+00
    -21.980  0.0000E+00  0.0000E+00  0.0000E+00  0.0000E+00  0.0000E+00  0.0000E+00  0.0000E+00  0.0000E+00  0.0000E+00  0.0000E+00  0.0000E+00  0.0000E+00  0.0000E+00  0.0000E+00  0.0000E+00  0.0000E+00  0.0000E+00  0.0000E+00
    -21.851  0.0000E+00  0.0000E+00  0.0000E+00  0.0000E+00  0.0000E+00  0.0000E+00  0.0000E+00  0.0000E+00  0.0000E+00  0.0000E+00  0.0000E+00  0.0000E+00  0.0000E+00  0.0000E+00  0.0000E+00  0.0000E+00  0.0000E+00  0.0000E+00
    -21.721  0.0000E+00  0.0000E+00  0.0000E+00  0.0000E+00  0.0000E+00  0.0000E+00  0.0000E+00  0.0000E+00  0.0000E+00  0.0000E+00  0.0000E+00  0.0000E+00  0.0000E+00  0.0000E+00  0.0000E+00  0.0000E+00  0.0000E+00  0.0000E+00