   8   8   1   0
  0.1403384E+02  0.3828942E-09  0.3828942E-09  0.7657885E-09  0.5000000E-15
  1.000000000000000E-004
  CAR 
 unknown system                          
     17.12652887    -22.58643454  301      8.97481638      1.00000000
    -22.586  0.0000E+00  0.0000E+00  0.0000E+00  0.0000E+00
    -22.454  0.0000E+00  0.0000E+00  0.0000E+00  0.0000E+00
    -22.322  0.0000E+00  0.0000E+00  0.0000E+00  0.0000E+00
    -22.189  0.0000E+00  0.0000E+00  0.0000E+00  0.0000E+00
    -22.057  0.0000E+00  0.0000E+00  0.0000E+00  0.0000E+00
    -21.925  0.0000E+00  0.0000E+00  0.0000E+00  0.0000E+00
    -21.792  0.0000E+00  0.0000E+00  0.0000E+00  0.0000E+00
    -21.660  0.0000E+00  0.0000E+00  0.0000E+00  0.0000E+00
    -21.527  0.0000E+00  0.0000E+00  0.0000E+00  0.0000E+00
    -21.395  0.0000E+00  0.0000E+00  0.0000E+00  0.0000E+00
    -21.263  0.6199E-03  0.6384E-03  0.8207E-04  0.8451E-04
    -21.130  0.1187E-01  0.1218E-01  0.1654E-02  0.1697E-02
    -20.998  0.1627E+00  0.1669E+00  0.2319E-01  0.2379E-01
    -20.866  0.2086E+01  0.2135E+01  0.2994E+00  0.3064E+00
    -20.733  0.1358E+02  0.1372E+02  0.2097E+01  0.2122E+01
    -20.601  0.2071E+02  0.2061E+02  0.4838E+01  0.4851E+01
    -20.468  0.7857E+01  0.7775E+01  0.5878E+01  0.5880E+01
    -20.336  0.8130E+00  0.8034E+00  0.5991E+01  0.5992E+01
    -20.204  0.0000E+00  0.0000E+00  0.6000E+01  0.6000E+01
    -20.071  0.0000E+00  0.0000E+00  0.6000E+01  0.6000E+01
    -19.939  0.0000E+00  0.0000E+00  0.6000E+01  0.6000E+01
    -19.807  0.0000E+00  0.0000E+00  0.6000E+01  0.6000E+01
    -19.674  0.0000E+00  0.0000E+00  0.6000E+01  0.6000E+01
    -19.542  0.0000E+00  0.0000E+00  0.6000E+01  0.6000E+01
    -19.409  0.0000E+00  0.0000E+00  0.6000E+01  0.6000E+01
    -19.277  0.0000E+00  0.0000E+00  0.6000E+01  0.6000E+01
    -19.145  0.0000E+00  0.0000E+00  0.6000E+01  0.6000E+01
    -19.012  0.0000E+00  0.0000E+00  0.6000E+01  0.6000E+01
    -18.880  0.0000E+00  0.0000E+00  0.6000E+01  0.6000E+01
    -18.748  0.0000E+00  0.0000E+00  0.6000E+01  0.6000E+01
    -18.615  0.0000E+00  0.0000E+00  0.6000E+01  0.6000E+01
    -18.483  0.0000E+00  0.0000E+00  0.6000E+01  0.6000E+01
    -18.350  0.0000E+00  0.0000E+00  0.6000E+01  0.6000E+01
    -18.218  0.0000E+00  0.0000E+00  0.6000E+01  0.6000E+01
    -18.086  0.0000E+00  0.0000E+00  0.6000E+01  0.6000E+01
    -17.953  0.0000E+00  0.0000E+00  0.6000E+01  0.6000E+01
    -17.821  0.0000E+00  0.0000E+00  0.6000E+01  0.6000E+01
    -17.689  0.0000E+00  0.0000E+00  0.6000E+01  0.6000E+01
    -17.556  0.0000E+00  0.0000E+00  0.6000E+01  0.6000E+01
    -17.424  0.0000E+00  0.0000E+00  0.6000E+01  0.6000E+01
    -17.291  0.0000E+00  0.0000E+00  0.6000E+01  0.6000E+01
    -17.159  0.0000E+00  0.0000E+00  0.6000E+01  0.6000E+01
    -17.027  0.0000E+00  0.0000E+00  0.6000E+01  0.6000E+01
    -16.894  0.0000E+00  0.0000E+00  0.6000E+01  0.6000E+01
    -16.762  0.0000E+00  0.0000E+00  0.6000E+01  0.6000E+01
    -16.629  0.0000E+00  0.0000E+00  0.6000E+01  0.6000E+01
    -16.497  0.0000E+00  0.0000E+00  0.6000E+01  0.6000E+01
    -16.365  0.0000E+00  0.0000E+00  0.6000E+01  0.6000E+01
    -16.232  0.0000E+00  0.0000E+00  0.6000E+01  0.6000E+01
    -16.100  0.0000E+00  0.0000E+00  0.6000E+01  0.6000E+01
    -15.968  0.0000E+00  0.0000E+00  0.6000E+01  0.6000E+01
    -15.835  0.0000E+00  0.0000E+00  0.6000E+01  0.6000E+01
    -15.703  0.0000E+00  0.0000E+00  0.6000E+01  0.6000E+01
    -15.570  0.0000E+00  0.0000E+00  0.6000E+01  0.6000E+01
    -15.438  0.0000E+00  0.0000E+00  0.6000E+01  0.6000E+01
    -15.306  0.0000E+00  0.0000E+00  0.6000E+01  0.6000E+01
    -15.173  0.0000E+00  0.0000E+00  0.6000E+01  0.6000E+01
    -15.041  0.0000E+00  0.0000E+00  0.6000E+01  0.6000E+01
    -14.909  0.0000E+00  0.0000E+00  0.6000E+01  0.6000E+01
    -14.776  0.0000E+00  0.0000E+00  0.6000E+01  0.6000E+01
    -14.644  0.0000E+00  0.0000E+00  0.6000E+01  0.6000E+01
    -14.511  0.0000E+00  0.0000E+00  0.6000E+01  0.6000E+01
    -14.379  0.0000E+00  0.0000E+00  0.6000E+01  0.6000E+01
    -14.247  0.0000E+00  0.0000E+00  0.6000E+01  0.6000E+01
    -14.114  0.0000E+00  0.0000E+00  0.6000E+01  0.6000E+01
    -13.982  0.0000E+00  0.0000E+00  0.6000E+01  0.6000E+01
    -13.850  0.0000E+00  0.0000E+00  0.6000E+01  0.6000E+01
    -13.717  0.0000E+00  0.0000E+00  0.6000E+01  0.6000E+01
    -13.585  0.0000E+00  0.0000E+00  0.6000E+01  0.6000E+01
    -13.452  0.0000E+00  0.0000E+00  0.6000E+01  0.6000E+01
    -13.320  0.0000E+00  0.0000E+00  0.6000E+01  0.6000E+01
    -13.188  0.0000E+00  0.0000E+00  0.6000E+01  0.6000E+01
    -13.055  0.0000E+00  0.0000E+00  0.6000E+01  0.6000E+01
    -12.923  0.0000E+00  0.0000E+00  0.6000E+01  0.6000E+01
    -12.791  0.0000E+00  0.0000E+00  0.6000E+01  0.6000E+01
    -12.658  0.0000E+00  0.0000E+00  0.6000E+01  0.6000E+01
    -12.526  0.0000E+00  0.0000E+00  0.6000E+01  0.6000E+01
    -12.393  0.0000E+00  0.0000E+00  0.6000E+01  0.6000E+01
    -12.261  0.0000E+00  0.0000E+00  0.6000E+01  0.6000E+01
    -12.129  0.0000E+00  0.0000E+00  0.6000E+01  0.6000E+01
    -11.996  0.0000E+00  0.0000E+00  0.6000E+01  0.6000E+01
    -11.864  0.0000E+00  0.0000E+00  0.6000E+01  0.6000E+01
    -11.732  0.0000E+00  0.0000E+00  0.6000E+01  0.6000E+01
    -11.599  0.0000E+00  0.0000E+00  0.6000E+01  0.6000E+01
    -11.467  0.0000E+00  0.0000E+00  0.6000E+01  0.6000E+01
    -11.334  0.0000E+00  0.0000E+00  0.6000E+01  0.6000E+01
    -11.202  0.0000E+00  0.0000E+00  0.6000E+01  0.6000E+01
    -11.070  0.0000E+00  0.0000E+00  0.6000E+01  0.6000E+01
    -10.937  0.0000E+00  0.0000E+00  0.6000E+01  0.6000E+01
    -10.805  0.0000E+00  0.0000E+00  0.6000E+01  0.6000E+01
    -10.673  0.0000E+00  0.0000E+00  0.6000E+01  0.6000E+01
    -10.540  0.0000E+00  0.0000E+00  0.6000E+01  0.6000E+01
    -10.408  0.0000E+00  0.0000E+00  0.6000E+01  0.6000E+01
    -10.275  0.0000E+00  0.0000E+00  0.6000E+01  0.6000E+01
    -10.143  0.0000E+00  0.0000E+00  0.6000E+01  0.6000E+01
    -10.011  0.0000E+00  0.0000E+00  0.6000E+01  0.6000E+01
     -9.878  0.0000E+00  0.0000E+00  0.6000E+01  0.6000E+01
     -9.746  0.0000E+00  0.0000E+00  0.6000E+01  0.6000E+01
     -9.614  0.0000E+00  0.0000E+00  0.6000E+01  0.6000E+01
     -9.481  0.0000E+00  0.0000E+00  0.6000E+01  0.6000E+01
     -9.349  0.0000E+00  0.0000E+00  0.6000E+01  0.6000E+01
     -9.216  0.0000E+00  0.0000E+00  0.6000E+01  0.6000E+01
     -9.084  0.0000E+00  0.0000E+00  0.6000E+01  0.6000E+01
     -8.952  0.0000E+00  0.0000E+00  0.6000E+01  0.6000E+01
     -8.819  0.0000E+00  0.0000E+00  0.6000E+01  0.6000E+01
     -8.687  0.0000E+00  0.0000E+00  0.6000E+01  0.6000E+01
     -8.555  0.0000E+00  0.0000E+00  0.6000E+01  0.6000E+01
     -8.422  0.0000E+00  0.0000E+00  0.6000E+01  0.6000E+01
     -8.290  0.0000E+00  0.0000E+00  0.6000E+01  0.6000E+01
     -8.157  0.0000E+00  0.0000E+00  0.6000E+01  0.6000E+01
     -8.025  0.0000E+00  0.0000E+00  0.6000E+01  0.6000E+01
     -7.893  0.0000E+00  0.0000E+00  0.6000E+01  0.6000E+01
     -7.760  0.0000E+00  0.0000E+00  0.6000E+01  0.6000E+01
     -7.628  0.0000E+00  0.0000E+00  0.6000E+01  0.6000E+01
     -7.496  0.0000E+00  0.0000E+00  0.6000E+01  0.6000E+01
     -7.363  0.0000E+00  0.0000E+00  0.6000E+01  0.6000E+01
     -7.231  0.0000E+00  0.0000E+00  0.6000E+01  0.6000E+01
     -7.098  0.0000E+00  0.0000E+00  0.6000E+01  0.6000E+01
     -6.966  0.0000E+00  0.0000E+00  0.6000E+01  0.6000E+01
     -6.834  0.0000E+00  0.0000E+00  0.6000E+01  0.6000E+01
     -6.701  0.0000E+00  0.0000E+00  0.6000E+01  0.6000E+01
     -6.569  0.0000E+00  0.0000E+00  0.6000E+01  0.6000E+01
     -6.436  0.0000E+00  0.0000E+00  0.6000E+01  0.6000E+01
     -6.304  0.0000E+00  0.0000E+00  0.6000E+01  0.6000E+01
     -6.172  0.0000E+00  0.0000E+00  0.6000E+01  0.6000E+01
     -6.039  0.0000E+00  0.0000E+00  0.6000E+01  0.6000E+01
     -5.907  0.0000E+00  0.0000E+00  0.6000E+01  0.6000E+01
     -5.775  0.0000E+00  0.0000E+00  0.6000E+01  0.6000E+01
     -5.642  0.0000E+00  0.0000E+00  0.6000E+01  0.6000E+01
     -5.510  0.0000E+00  0.0000E+00  0.6000E+01  0.6000E+01
     -5.377  0.0000E+00  0.0000E+00  0.6000E+01  0.6000E+01
     -5.245  0.0000E+00  0.0000E+00  0.6000E+01  0.6000E+01
     -5.113  0.0000E+00  0.0000E+00  0.6000E+01  0.6000E+01
     -4.980  0.0000E+00  0.0000E+00  0.6000E+01  0.6000E+01
     -4.848  0.0000E+00  0.0000E+00  0.6000E+01  0.6000E+01
     -4.716  0.0000E+00  0.0000E+00  0.6000E+01  0.6000E+01
     -4.583  0.0000E+00  0.0000E+00  0.6000E+01  0.6000E+01
     -4.451  0.0000E+00  0.0000E+00  0.6000E+01  0.6000E+01
     -4.318  0.0000E+00  0.0000E+00  0.6000E+01  0.6000E+01
     -4.186  0.0000E+00  0.0000E+00  0.6000E+01  0.6000E+01
     -4.054  0.0000E+00  0.0000E+00  0.6000E+01  0.6000E+01
     -3.921  0.0000E+00  0.0000E+00  0.6000E+01  0.6000E+01
     -3.789  0.0000E+00  0.0000E+00  0.6000E+01  0.6000E+01
     -3.657  0.0000E+00  0.0000E+00  0.6000E+01  0.6000E+01
     -3.524  0.0000E+00  0.0000E+00  0.6000E+01  0.6000E+01
     -3.392  0.0000E+00  0.0000E+00  0.6000E+01  0.6000E+01
     -3.259  0.0000E+00  0.0000E+00  0.6000E+01  0.6000E+01
     -3.127  0.0000E+00  0.0000E+00  0.6000E+01  0.6000E+01
     -2.995  0.0000E+00  0.0000E+00  0.6000E+01  0.6000E+01
     -2.862  0.0000E+00  0.0000E+00  0.6000E+01  0.6000E+01
     -2.730  0.0000E+00  0.0000E+00  0.6000E+01  0.6000E+01
     -2.598  0.3872E-05  0.4015E-05  0.6000E+01  0.6000E+01
     -2.465  0.7083E-04  0.7345E-04  0.6000E+01  0.6000E+01
     -2.333  0.9739E-03  0.1009E-02  0.6000E+01  0.6000E+01
     -2.200  0.1122E-01  0.1156E-01  0.6002E+01  0.6002E+01
     -2.068  0.6076E-01  0.6171E-01  0.6010E+01  0.6010E+01
     -1.936  0.1163E+00  0.1169E+00  0.6025E+01  0.6025E+01
     -1.803  0.1803E+00  0.1813E+00  0.6049E+01  0.6049E+01
     -1.671  0.1887E+00  0.1884E+00  0.6074E+01  0.6074E+01
     -1.539  0.2394E+00  0.2407E+00  0.6106E+01  0.6106E+01
     -1.406  0.2744E+00  0.2743E+00  0.6142E+01  0.6143E+01
     -1.274  0.2950E+00  0.2957E+00  0.6181E+01  0.6182E+01
     -1.141  0.2953E+00  0.2946E+00  0.6220E+01  0.6221E+01
     -1.009  0.3390E+00  0.3409E+00  0.6265E+01  0.6266E+01
     -0.877  0.4137E+00  0.4133E+00  0.6320E+01  0.6321E+01
     -0.744  0.3868E+00  0.3867E+00  0.6371E+01  0.6372E+01
     -0.612  0.3663E+00  0.3665E+00  0.6420E+01  0.6421E+01
     -0.480  0.4434E+00  0.4449E+00  0.6479E+01  0.6480E+01
     -0.347  0.5189E+00  0.5190E+00  0.6548E+01  0.6549E+01
     -0.215  0.4716E+00  0.4713E+00  0.6610E+01  0.6611E+01
     -0.082  0.4949E+00  0.4959E+00  0.6676E+01  0.6677E+01
      0.050  0.5704E+00  0.5709E+00  0.6751E+01  0.6752E+01
      0.182  0.5159E+00  0.5149E+00  0.6820E+01  0.6821E+01
      0.315  0.5618E+00  0.5639E+00  0.6894E+01  0.6895E+01
      0.447  0.6992E+00  0.6997E+00  0.6987E+01  0.6988E+01
      0.579  0.6776E+00  0.6757E+00  0.7077E+01  0.7078E+01
      0.712  0.6181E+00  0.6186E+00  0.7158E+01  0.7160E+01
      0.844  0.6880E+00  0.6898E+00  0.7250E+01  0.7251E+01
      0.977  0.7639E+00  0.7637E+00  0.7351E+01  0.7352E+01
      1.109  0.7472E+00  0.7475E+00  0.7450E+01  0.7451E+01
      1.241  0.8222E+00  0.8236E+00  0.7559E+01  0.7561E+01
      1.374  0.8152E+00  0.8157E+00  0.7667E+01  0.7669E+01
      1.506  0.9155E+00  0.9168E+00  0.7788E+01  0.7790E+01
      1.638  0.8926E+00  0.8920E+00  0.7907E+01  0.7909E+01
      1.771  0.9175E+00  0.9204E+00  0.8028E+01  0.8030E+01
      1.903  0.1111E+01  0.1113E+01  0.8176E+01  0.8178E+01
      2.036  0.1142E+01  0.1142E+01  0.8327E+01  0.8329E+01
      2.168  0.1111E+01  0.1111E+01  0.8474E+01  0.8477E+01
      2.300  0.9974E+00  0.9926E+00  0.8607E+01  0.8608E+01
      2.433  0.8221E+00  0.8224E+00  0.8716E+01  0.8717E+01
      2.565  0.9246E+00  0.9248E+00  0.8838E+01  0.8840E+01
      2.697  0.8251E+00  0.8232E+00  0.8948E+01  0.8949E+01
      2.830  0.9061E+00  0.9078E+00  0.9068E+01  0.9069E+01
      2.962  0.8971E+00  0.8962E+00  0.9187E+01  0.9188E+01
      3.095  0.9555E+00  0.9584E+00  0.9314E+01  0.9315E+01
      3.227  0.1080E+01  0.1078E+01  0.9457E+01  0.9458E+01
      3.359  0.8554E+00  0.8538E+00  0.9570E+01  0.9572E+01
      3.492  0.9604E+00  0.9629E+00  0.9698E+01  0.9699E+01
      3.624  0.1124E+01  0.1127E+01  0.9847E+01  0.9849E+01
      3.756  0.1307E+01  0.1309E+01  0.1002E+02  0.1002E+02
      3.889  0.1515E+01  0.1518E+01  0.1022E+02  0.1022E+02
      4.021  0.1398E+01  0.1393E+01  0.1041E+02  0.1041E+02
      4.154  0.1237E+01  0.1237E+01  0.1057E+02  0.1057E+02
      4.286  0.1228E+01  0.1227E+01  0.1073E+02  0.1073E+02
      4.418  0.1150E+01  0.1149E+01  0.1089E+02  0.1089E+02
      4.551  0.1102E+01  0.1103E+01  0.1103E+02  0.1103E+02
      4.683  0.1321E+01  0.1326E+01  0.1121E+02  0.1121E+02
      4.816  0.1608E+01  0.1606E+01  0.1142E+02  0.1142E+02
      4.948  0.1247E+01  0.1243E+01  0.1158E+02  0.1159E+02
      5.080  0.1008E+01  0.1006E+01  0.1172E+02  0.1172E+02
      5.213  0.1127E+01  0.1131E+01  0.1187E+02  0.1187E+02
      5.345  0.1506E+01  0.1509E+01  0.1207E+02  0.1207E+02
      5.477  0.1548E+01  0.1548E+01  0.1227E+02  0.1228E+02
      5.610  0.1500E+01  0.1499E+01  0.1247E+02  0.1247E+02
      5.742  0.1352E+01  0.1351E+01  0.1265E+02  0.1265E+02
      5.875  0.1297E+01  0.1297E+01  0.1282E+02  0.1283E+02
      6.007  0.1336E+01  0.1334E+01  0.1300E+02  0.1300E+02
      6.139  0.1087E+01  0.1086E+01  0.1314E+02  0.1315E+02
      6.272  0.1399E+01  0.1404E+01  0.1333E+02  0.1333E+02
      6.404  0.1699E+01  0.1699E+01  0.1356E+02  0.1356E+02
      6.536  0.1906E+01  0.1907E+01  0.1381E+02  0.1381E+02
      6.669  0.2040E+01  0.2038E+01  0.1408E+02  0.1408E+02
      6.801  0.1918E+01  0.1917E+01  0.1433E+02  0.1433E+02
      6.934  0.2011E+01  0.2016E+01  0.1460E+02  0.1460E+02
      7.066  0.2669E+01  0.2676E+01  0.1495E+02  0.1496E+02
      7.198  0.2988E+01  0.2984E+01  0.1535E+02  0.1535E+02
      7.331  0.2172E+01  0.2162E+01  0.1564E+02  0.1564E+02
      7.463  0.1897E+01  0.1896E+01  0.1589E+02  0.1589E+02
      7.595  0.1842E+01  0.1839E+01  0.1613E+02  0.1613E+02
      7.728  0.1749E+01  0.1749E+01  0.1636E+02  0.1637E+02
      7.860  0.2032E+01  0.2032E+01  0.1663E+02  0.1664E+02
      7.993  0.1965E+01  0.1964E+01  0.1689E+02  0.1690E+02
      8.125  0.1805E+01  0.1804E+01  0.1713E+02  0.1714E+02
      8.257  0.1580E+01  0.1579E+01  0.1734E+02  0.1734E+02
      8.390  0.1603E+01  0.1601E+01  0.1756E+02  0.1756E+02
      8.522  0.1903E+01  0.1904E+01  0.1781E+02  0.1781E+02
      8.654  0.2576E+01  0.2577E+01  0.1815E+02  0.1815E+02
      8.787  0.2780E+01  0.2780E+01  0.1852E+02  0.1852E+02
      8.919  0.2692E+01  0.2688E+01  0.1888E+02  0.1888E+02
      9.052  0.2011E+01  0.2008E+01  0.1914E+02  0.1914E+02
      9.184  0.1662E+01  0.1660E+01  0.1936E+02  0.1936E+02
      9.316  0.1347E+01  0.1347E+01  0.1954E+02  0.1954E+02
      9.449  0.9187E+00  0.9192E+00  0.1966E+02  0.1966E+02
      9.581  0.7604E+00  0.7604E+00  0.1976E+02  0.1976E+02
      9.713  0.8178E+00  0.8186E+00  0.1987E+02  0.1987E+02
      9.846  0.7342E+00  0.7340E+00  0.1997E+02  0.1997E+02
      9.978  0.7863E+00  0.7872E+00  0.2008E+02  0.2008E+02
     10.111  0.7145E+00  0.7181E+00  0.2017E+02  0.2017E+02
     10.243  0.8064E+00  0.8090E+00  0.2028E+02  0.2028E+02
     10.375  0.9940E+00  0.9961E+00  0.2041E+02  0.2041E+02
     10.508  0.1236E+01  0.1236E+01  0.2057E+02  0.2057E+02
     10.640  0.1234E+01  0.1235E+01  0.2074E+02  0.2074E+02
     10.772  0.1439E+01  0.1438E+01  0.2093E+02  0.2093E+02
     10.905  0.1648E+01  0.1648E+01  0.2114E+02  0.2115E+02
     11.037  0.2011E+01  0.2011E+01  0.2141E+02  0.2141E+02
     11.170  0.2173E+01  0.2175E+01  0.2170E+02  0.2170E+02
     11.302  0.2363E+01  0.2363E+01  0.2201E+02  0.2201E+02
     11.434  0.2748E+01  0.2749E+01  0.2238E+02  0.2238E+02
     11.567  0.3104E+01  0.3102E+01  0.2279E+02  0.2279E+02
     11.699  0.3031E+01  0.3025E+01  0.2319E+02  0.2319E+02
     11.831  0.2543E+01  0.2540E+01  0.2353E+02  0.2353E+02
     11.964  0.2095E+01  0.2099E+01  0.2381E+02  0.2381E+02
     12.096  0.2122E+01  0.2125E+01  0.2409E+02  0.2409E+02
     12.229  0.2126E+01  0.2128E+01  0.2437E+02  0.2437E+02
     12.361  0.2389E+01  0.2389E+01  0.2469E+02  0.2469E+02
     12.493  0.2772E+01  0.2773E+01  0.2505E+02  0.2505E+02
     12.626  0.2868E+01  0.2871E+01  0.2543E+02  0.2543E+02
     12.758  0.2030E+01  0.2030E+01  0.2570E+02  0.2570E+02
     12.890  0.1452E+01  0.1451E+01  0.2590E+02  0.2590E+02
     13.023  0.1231E+01  0.1230E+01  0.2606E+02  0.2606E+02
     13.155  0.7968E+00  0.7954E+00  0.2616E+02  0.2617E+02
     13.288  0.8901E+00  0.8927E+00  0.2628E+02  0.2628E+02
     13.420  0.1496E+01  0.1502E+01  0.2648E+02  0.2648E+02
     13.552  0.1675E+01  0.1676E+01  0.2670E+02  0.2671E+02
     13.685  0.1280E+01  0.1290E+01  0.2687E+02  0.2688E+02
     13.817  0.1444E+01  0.1452E+01  0.2706E+02  0.2707E+02
     13.949  0.1528E+01  0.1525E+01  0.2727E+02  0.2727E+02
     14.082  0.1632E+01  0.1616E+01  0.2748E+02  0.2749E+02
     14.214  0.1286E+01  0.1275E+01  0.2765E+02  0.2765E+02
     14.347  0.6901E+00  0.6951E+00  0.2775E+02  0.2775E+02
     14.479  0.5016E+00  0.4917E+00  0.2781E+02  0.2781E+02
     14.611  0.5271E+00  0.5224E+00  0.2788E+02  0.2788E+02
     14.744  0.3869E+00  0.3908E+00  0.2793E+02  0.2793E+02
     14.876  0.2819E+00  0.2940E+00  0.2797E+02  0.2797E+02
     15.009  0.1195E+00  0.1091E+00  0.2799E+02  0.2799E+02
     15.141  0.5534E-01  0.5199E-01  0.2799E+02  0.2799E+02
     15.273  0.2052E-01  0.1974E-01  0.2800E+02  0.2800E+02
     15.406  0.1796E-01  0.1798E-01  0.2800E+02  0.2800E+02
     15.538  0.3862E-02  0.4015E-02  0.2800E+02  0.2800E+02
     15.670  0.2905E-03  0.3075E-03  0.2800E+02  0.2800E+02
     15.803  0.0000E+00  0.0000E+00  0.2800E+02  0.2800E+02
     15.935  0.0000E+00  0.0000E+00  0.2800E+02  0.2800E+02
     16.068  0.0000E+00  0.0000E+00  0.2800E+02  0.2800E+02
     16.200  0.0000E+00  0.0000E+00  0.2800E+02  0.2800E+02
     16.332  0.0000E+00  0.0000E+00  0.2800E+02  0.2800E+02
     16.465  0.0000E+00  0.0000E+00  0.2800E+02  0.2800E+02
     16.597  0.0000E+00  0.0000E+00  0.2800E+02  0.2800E+02
     16.729  0.0000E+00  0.0000E+00  0.2800E+02  0.2800E+02
     16.862  0.0000E+00  0.0000E+00  0.2800E+02  0.2800E+02
     16.994  0.0000E+00  0.0000E+00  0.2800E+02  0.2800E+02
     17.127  0.0000E+00  0.0000E+00  0.2800E+02  0.2800E+02
     17.12652887    -22.58643454  301      8.97481638      1.00000000
    -22.586  0.0000E+00  0.0000E+00  0.0000E+00  0.0000E+00  0.0000E+00  0.0000E+00  0.0000E+00  0.0000E+00  0.0000E+00  0.0000E+00  0.0000E+00  0.0000E+00  0.0000E+00  0.0000E+00  0.0000E+00  0.0000E+00  0.0000E+00  0.0000E+00
    -22.454  0.0000E+00  0.0000E+00  0.0000E+00  0.0000E+00  0.0000E+00  0.0000E+00  0.0000E+00  0.0000E+00  0.0000E+00  0.0000E+00  0.0000E+00  0.0000E+00  0.0000E+00  0.0000E+00  0.0000E+00  0.0000E+00  0.0000E+00  0.0000E+00
    -22.322  0.0000E+00  0.0000E+00  0.0000E+00  0.0000E+00  0.0000E+00  0.0000E+00  0.0000E+00  0.0000E+00  0.0000E+00  0.0000E+00  0.0000E+00  0.0000E+00  0.0000E+00  0.0000E+00  0.0000E+00  0.0000E+00  0.0000E+00  0.0000E+00
    -22.189  0.0000E+00  0.0000E+00  0.0000E+00  0.0000E+00  0.0000E+00  0.0000E+00  0.0000E+00  0.0000E+00  0.0000E+00  0.0000E+00  0.0000E+00  0.0000E+00  0.0000E+00  0.0000E+00  0.0000E+00  0.0000E+00  0.0000E+00  0.0000E+00
    -22.057  0.0000E+00  0.0000E+00  0.0000E+00  0.0000E+00  0.0000E+00  0.0000E+00  0.0000E+00  0.0000E+00  0.0000E+00  0.0000E+00  0.0000E+00  0.0000E+00  0.0000E+00  0.0000E+00  0.0000E+00  0.0000E+00  0.0000E+00  0.0000E+00
    -21.925  0.0000E+00  0.0000E+00  0.0000E+00  0.0000E+00  0.0000E+00  0.0000E+00  0.0000E+00  0.0000E+00  0.0000E+00  0.0000E+00  0.0000E+00  0.0000E+00  0.0000E+00  0.0000E+00  0.0000E+00  0.0000E+00  0.0000E+00  0.0000E+00
    -21.792  0.0000E+00  0.0000E+00  0.0000E+00  0.0000E+00  0.0000E+00  0.0000E+00  0.0000E+00  0.0000E+00  0.0000E+00  0.0000E+00  0.0000E+00  0.0000E+00  0.0000E+00  0.0000E+00  0.0000E+00  0.0000E+00  0.0000E+00  0.0000E+00
    -21.660  0.0000E+00  0.0000E+00  0.0000E+00  0.0000E+00  0.0000E+00  0.0000E+00  0.0000E+00  0.0000E+00  0.0000E+00  0.0000E+00  0.0000E+00  0.0000E+00  0.0000E+00  0.0000E+00  0.0000E+00  0.0000E+00  0.0000E+00  0.0000E+00
    -21.527  0.0000E+00  0.0000E+00  0.0000E+00  0.0000E+00  0.0000E+00  0.0000E+00  0.0000E+00  0.0000E+00  0.0000E+00  0.0000E+00  0.0000E+00  0.0000E+00  0.0000E+00  0.0000E+00  0.0000E+00  0.0000E+00  0.0000E+00  0.0000E+00
    -21.395  0.0000E+00  0.0000E+00  0.0000E+00  0.0000E+00  0.0000E+00  0.0000E+00  0.0000E+00  0.0000E+00  0.0000E+00  0.0000E+00  0.0000E+00  0.0000E+00  0.0000E+00  0.0000E+00  0.0000E+00  0.0000E+00  0.0000E+00  0.0000E+00
    -21.263  0.7102E-09  0.7334E-09  0.1514E-03  0.1559E-03  0.2285E-06  0.2321E-06  0.1514E-03  0.1559E-03  0.7362E-10  0.7555E-10  0.7097E-11  0.7291E-11  0.2725E-09  0.2826E-09  0.7097E-11  0.7291E-11  0.7421E-09  0.7678E-09
    -21.130  0.1515E-07  0.1555E-07  0.2768E-02  0.2842E-02  0.2743E-03  0.2769E-03  0.2768E-02  0.2842E-02  0.1176E-08  0.1207E-08  0.1784E-09  0.1820E-09  0.5853E-08  0.6006E-08  0.1784E-09  0.1820E-09  0.1654E-07  0.1697E-07
    -20.998  0.2068E-06  0.2123E-06  0.3801E-01  0.3902E-01  0.3600E-02  0.3633E-02  0.3801E-01  0.3902E-01  0.1626E-07  0.1669E-07  0.2421E-08  0.2470E-08  0.7985E-07  0.8197E-07  0.2421E-08  0.2470E-08  0.2253E-06  0.2312E-06
    -20.866  0.2684E-05  0.2749E-05  0.4853E+00  0.4970E+00  0.5038E-01  0.5083E-01  0.4853E+00  0.4970E+00  0.2056E-06  0.2104E-06  0.3190E-07  0.3247E-07  0.1037E-05  0.1062E-05  0.3190E-07  0.3247E-07  0.2934E-05  0.3005E-05
    -20.733  0.1788E-04  0.1807E-04  0.3005E+01  0.3036E+01  0.6390E+00  0.6442E+00  0.3005E+01  0.3036E+01  0.1175E-05  0.1185E-05  0.2711E-06  0.2734E-06  0.6924E-05  0.7000E-05  0.2711E-06  0.2734E-06  0.1998E-04  0.2020E-04
    -20.601  0.1915E-04  0.1896E-04  0.3241E+01  0.3211E+01  0.3670E+01  0.3680E+01  0.3241E+01  0.3211E+01  0.1087E-05  0.1076E-05  0.9850E-06  0.9864E-06  0.7472E-05  0.7398E-05  0.9850E-06  0.9864E-06  0.2198E-04  0.2176E-04
    -20.468  0.3260E-05  0.3188E-05  0.5816E+00  0.5681E+00  0.2688E+01  0.2675E+01  0.5816E+00  0.5681E+00  0.2035E-06  0.1995E-06  0.6283E-06  0.6250E-06  0.1298E-05  0.1269E-05  0.6283E-06  0.6250E-06  0.3635E-05  0.3548E-05
    -20.336  0.2027E-06  0.1979E-06  0.3697E-01  0.3601E-01  0.3246E+00  0.3218E+00  0.3697E-01  0.3601E-01  0.1340E-07  0.1315E-07  0.7273E-07  0.7211E-07  0.8272E-07  0.8074E-07  0.7273E-07  0.7211E-07  0.2185E-06  0.2127E-06
    -20.204  0.0000E+00  0.0000E+00  0.0000E+00  0.0000E+00  0.0000E+00  0.0000E+00  0.0000E+00  0.0000E+00  0.0000E+00  0.0000E+00  0.0000E+00  0.0000E+00  0.0000E+00  0.0000E+00  0.0000E+00  0.0000E+00  0.0000E+00  0.0000E+00
    -20.071  0.0000E+00  0.0000E+00  0.0000E+00  0.0000E+00  0.0000E+00  0.0000E+00  0.0000E+00  0.0000E+00  0.0000E+00  0.0000E+00  0.0000E+00  0.0000E+00  0.0000E+00  0.0000E+00  0.0000E+00  0.0000E+00  0.0000E+00  0.0000E+00
    -19.939  0.0000E+00  0.0000E+00  0.0000E+00  0.0000E+00  0.0000E+00  0.0000E+00  0.0000E+00  0.0000E+00  0.0000E+00  0.0000E+00  0.0000E+00  0.0000E+00  0.0000E+00  0.0000E+00  0.0000E+00  0.0000E+00  0.0000E+00  0.0000E+00
    -19.807  0.0000E+00  0.0000E+00  0.0000E+00  0.0000E+00  0.0000E+00  0.0000E+00  0.0000E+00  0.0000E+00  0.0000E+00  0.0000E+00  0.0000E+00  0.0000E+00  0.0000E+00  0.0000E+00  0.0000E+00  0.0000E+00  0.0000E+00  0.0000E+00
    -19.674  0.0000E+00  0.0000E+00  0.0000E+00  0.0000E+00  0.0000E+00  0.0000E+00  0.0000E+00  0.0000E+00  0.0000E+00  0.0000E+00  0.0000E+00  0.0000E+00  0.0000E+00  0.0000E+00  0.0000E+00  0.0000E+00  0.0000E+00  0.0000E+00
    -19.542  0.0000E+00  0.0000E+00  0.0000E+00  0.0000E+00  0.0000E+00  0.0000E+00  0.0000E+00  0.0000E+00  0.0000E+00  0.0000E+00  0.0000E+00  0.0000E+00  0.0000E+00  0.0000E+00  0.0000E+00  0.0000E+00  0.0000E+00  0.0000E+00
    -19.409  0.0000E+00  0.0000E+00  0.0000E+00  0.0000E+00  0.0000E+00  0.0000E+00  0.0000E+00  0.0000E+00  0.0000E+00  0.0000E+00  0.0000E+00  0.0000E+00  0.0000E+00  0.0000E+00  0.0000E+00  0.0000E+00  0.0000E+00  0.0000E+00
    -19.277  0.0000E+00  0.0000E+00  0.0000E+00  0.0000E+00  0.0000E+00  0.0000E+00  0.0000E+00  0.0000E+00  0.0000E+00  0.0000E+00  0.0000E+00  0.0000E+00  0.0000E+00  0.0000E+00  0.0000E+00  0.0000E+00  0.0000E+00  0.0000E+00
    -19.145  0.0000E+00  0.0000E+00  0.0000E+00  0.0000E+00  0.0000E+00  0.0000E+00  0.0000E+00  0.0000E+00  0.0000E+00  0.0000E+00  0.0000E+00  0.0000E+00  0.0000E+00  0.0000E+00  0.0000E+00  0.0000E+00  0.0000E+00  0.0000E+00
    -19.012  0.0000E+00  0.0000E+00  0.0000E+00  0.0000E+00  0.0000E+00  0.0000E+00  0.0000E+00  0.0000E+00  0.0000E+00  0.0000E+00  0.0000E+00  0.0000E+00  0.0000E+00  0.0000E+00  0.0000E+00  0.0000E+00  0.0000E+00  0.0000E+00
    -18.880  0.0000E+00  0.0000E+00  0.0000E+00  0.0000E+00  0.0000E+00  0.0000E+00  0.0000E+00  0.0000E+00  0.0000E+00  0.0000E+00  0.0000E+00  0.0000E+00  0.0000E+00  0.0000E+00  0.0000E+00  0.0000E+00  0.0000E+00  0.0000E+00
    -18.748  0.0000E+00  0.0000E+00  0.0000E+00  0.0000E+00  0.0000E+00  0.0000E+00  0.0000E+00  0.0000E+00  0.0000E+00  0.0000E+00  0.0000E+00  0.0000E+00  0.0000E+00  0.0000E+00  0.0000E+00  0.0000E+00  0.0000E+00  0.0000E+00
    -18.615  0.0000E+00  0.0000E+00  0.0000E+00  0.0000E+00  0.0000E+00  0.0000E+00  0.0000E+00  0.0000E+00  0.0000E+00  0.0000E+00  0.0000E+00  0.0000E+00  0.0000E+00  0.0000E+00  0.0000E+00  0.0000E+00  0.0000E+00  0.0000E+00
    -18.483  0.0000E+00  0.0000E+00  0.0000E+00  0.0000E+00  0.0000E+00  0.0000E+00  0.0000E+00  0.0000E+00  0.0000E+00  0.0000E+00  0.0000E+00  0.0000E+00  0.0000E+00  0.0000E+00  0.0000E+00  0.0000E+00  0.0000E+00  0.0000E+00
    -18.350  0.0000E+00  0.0000E+00  0.0000E+00  0.0000E+00  0.0000E+00  0.0000E+00  0.0000E+00  0.0000E+00  0.0000E+00  0.0000E+00  0.0000E+00  0.0000E+00  0.0000E+00  0.0000E+00  0.0000E+00  0.0000E+00  0.0000E+00  0.0000E+00
    -18.218  0.0000E+00  0.0000E+00  0.0000E+00  0.0000E+00  0.0000E+00  0.0000E+00  0.0000E+00  0.0000E+00  0.0000E+00  0.0000E+00  0.0000E+00  0.0000E+00  0.0000E+00  0.0000E+00  0.0000E+00  0.0000E+00  0.0000E+00  0.0000E+00
    -18.086  0.0000E+00  0.0000E+00  0.0000E+00  0.0000E+00  0.0000E+00  0.0000E+00  0.0000E+00  0.0000E+00  0.0000E+00  0.0000E+00  0.0000E+00  0.0000E+00  0.0000E+00  0.0000E+00  0.0000E+00  0.0000E+00  0.0000E+00  0.0000E+00
    -17.953  0.0000E+00  0.0000E+00  0.0000E+00  0.0000E+00  0.0000E+00  0.0000E+00  0.0000E+00  0.0000E+00  0.0000E+00  0.0000E+00  0.0000E+00  0.0000E+00  0.0000E+00  0.0000E+00  0.0000E+00  0.0000E+00  0.0000E+00  0.0000E+00
    -17.821  0.0000E+00  0.0000E+00  0.0000E+00  0.0000E+00  0.0000E+00  0.0000E+00  0.0000E+00  0.0000E+00  0.0000E+00  0.0000E+00  0.0000E+00  0.0000E+00  0.0000E+00  0.0000E+00  0.0000E+00  0.0000E+00  0.0000E+00  0.0000E+00
    -17.689  0.0000E+00  0.0000E+00  0.0000E+00  0.0000E+00  0.0000E+00  0.0000E+00  0.0000E+00  0.0000E+00  0.0000E+00  0.0000E+00  0.0000E+00  0.0000E+00  0.0000E+00  0.0000E+00  0.0000E+00  0.0000E+00  0.0000E+00  0.0000E+00
    -17.556  0.0000E+00  0.0000E+00  0.0000E+00  0.0000E+00  0.0000E+00  0.0000E+00  0.0000E+00  0.0000E+00  0.0000E+00  0.0000E+00  0.0000E+00  0.0000E+00  0.0000E+00  0.0000E+00  0.0000E+00  0.0000E+00  0.0000E+00  0.0000E+00
    -17.424  0.0000E+00  0.0000E+00  0.0000E+00  0.0000E+00  0.0000E+00  0.0000E+00  0.0000E+00  0.0000E+00  0.0000E+00  0.0000E+00  0.0000E+00  0.0000E+00  0.0000E+00  0.0000E+00  0.0000E+00  0.0000E+00  0.0000E+00  0.0000E+00
    -17.291  0.0000E+00  0.0000E+00  0.0000E+00  0.0000E+00  0.0000E+00  0.0000E+00  0.0000E+00  0.0000E+00  0.0000E+00  0.0000E+00  0.0000E+00  0.0000E+00  0.0000E+00  0.0000E+00  0.0000E+00  0.0000E+00  0.0000E+00  0.0000E+00
    -17.159  0.0000E+00  0.0000E+00  0.0000E+00  0.0000E+00  0.0000E+00  0.0000E+00  0.0000E+00  0.0000E+00  0.0000E+00  0.0000E+00  0.0000E+00  0.0000E+00  0.0000E+00  0.0000E+00  0.0000E+00  0.0000E+00  0.0000E+00  0.0000E+00
    -17.027  0.0000E+00  0.0000E+00  0.0000E+00  0.0000E+00  0.0000E+00  0.0000E+00  0.0000E+00  0.0000E+00  0.0000E+00  0.0000E+00  0.0000E+00  0.0000E+00  0.0000E+00  0.0000E+00  0.0000E+00  0.0000E+00  0.0000E+00  0.0000E+00
    -16.894  0.0000E+00  0.0000E+00  0.0000E+00  0.0000E+00  0.0000E+00  0.0000E+00  0.0000E+00  0.0000E+00  0.0000E+00  0.0000E+00  0.0000E+00  0.0000E+00  0.0000E+00  0.0000E+00  0.0000E+00  0.0000E+00  0.0000E+00  0.0000E+00
    -16.762  0.0000E+00  0.0000E+00  0.0000E+00  0.0000E+00  0.0000E+00  0.0000E+00  0.0000E+00  0.0000E+00  0.0000E+00  0.0000E+00  0.0000E+00  0.0000E+00  0.0000E+00  0.0000E+00  0.0000E+00  0.0000E+00  0.0000E+00  0.0000E+00
    -16.629  0.0000E+00  0.0000E+00  0.0000E+00  0.0000E+00  0.0000E+00  0.0000E+00  0.0000E+00  0.0000E+00  0.0000E+00  0.0000E+00  0.0000E+00  0.0000E+00  0.0000E+00  0.0000E+00  0.0000E+00  0.0000E+00  0.0000E+00  0.0000E+00
    -16.497  0.0000E+00  0.0000E+00  0.0000E+00  0.0000E+00  0.0000E+00  0.0000E+00  0.0000E+00  0.0000E+00  0.0000E+00  0.0000E+00  0.0000E+00  0.0000E+00  0.0000E+00  0.0000E+00  0.0000E+00  0.0000E+00  0.0000E+00  0.0000E+00
    -16.365  0.0000E+00  0.0000E+00  0.0000E+00  0.0000E+00  0.0000E+00  0.0000E+00  0.0000E+00  0.0000E+00  0.0000E+00  0.0000E+00  0.0000E+00  0.0000E+00  0.0000E+00  0.0000E+00  0.0000E+00  0.0000E+00  0.0000E+00  0.0000E+00
    -16.232  0.0000E+00  0.0000E+00  0.0000E+00  0.0000E+00  0.0000E+00  0.0000E+00  0.0000E+00  0.0000E+00  0.0000E+00  0.0000E+00  0.0000E+00  0.0000E+00  0.0000E+00  0.0000E+00  0.0000E+00  0.0000E+00  0.0000E+00  0.0000E+00
    -16.100  0.0000E+00  0.0000E+00  0.0000E+00  0.0000E+00  0.0000E+00  0.0000E+00  0.0000E+00  0.0000E+00  0.0000E+00  0.0000E+00  0.0000E+00  0.0000E+00  0.0000E+00  0.0000E+00  0.0000E+00  0.0000E+00  0.0000E+00  0.0000E+00
    -15.968  0.0000E+00  0.0000E+00  0.0000E+00  0.0000E+00  0.0000E+00  0.0000E+00  0.0000E+00  0.0000E+00  0.0000E+00  0.0000E+00  0.0000E+00  0.0000E+00  0.0000E+00  0.0000E+00  0.0000E+00  0.0000E+00  0.0000E+00  0.0000E+00