   8   8   1   0
  0.1906511E+02  0.4240657E-09  0.4240657E-09  0.8481313E-09  0.5000000E-15
  1.000000000000000E-004
  CAR 
 unknown system                          
     12.61097279    -26.29338194  301      6.16348594      1.00000000
    -26.293  0.0000E+00  0.0000E+00  0.0000E+00  0.0000E+00
    -26.164  0.0000E+00  0.0000E+00  0.0000E+00  0.0000E+00
    -26.034  0.0000E+00  0.0000E+00  0.0000E+00  0.0000E+00
    -25.904  0.0000E+00  0.0000E+00  0.0000E+00  0.0000E+00
    -25.775  0.0000E+00  0.0000E+00  0.0000E+00  0.0000E+00
    -25.645  0.0000E+00  0.0000E+00  0.0000E+00  0.0000E+00
    -25.515  0.0000E+00  0.0000E+00  0.0000E+00  0.0000E+00
    -25.386  0.0000E+00  0.0000E+00  0.0000E+00  0.0000E+00
    -25.256  0.0000E+00  0.0000E+00  0.0000E+00  0.0000E+00
    -25.126  0.0000E+00  0.0000E+00  0.0000E+00  0.0000E+00
    -24.997  0.1970E-02  0.1958E-02  0.2555E-03  0.2539E-03
    -24.867  0.2537E-01  0.2521E-01  0.3545E-02  0.3523E-02
    -24.737  0.3346E+00  0.3325E+00  0.4694E-01  0.4664E-01
    -24.608  0.3896E+01  0.3874E+01  0.5522E+00  0.5491E+00
    -24.478  0.1843E+02  0.1839E+02  0.2942E+01  0.2934E+01
    -24.348  0.1747E+02  0.1748E+02  0.5207E+01  0.5201E+01
    -24.218  0.5491E+01  0.5532E+01  0.5920E+01  0.5919E+01
    -24.089  0.4927E+00  0.4985E+00  0.5995E+01  0.5995E+01
    -23.959  0.0000E+00  0.0000E+00  0.6000E+01  0.6000E+01
    -23.829  0.0000E+00  0.0000E+00  0.6000E+01  0.6000E+01
    -23.700  0.0000E+00  0.0000E+00  0.6000E+01  0.6000E+01
    -23.570  0.0000E+00  0.0000E+00  0.6000E+01  0.6000E+01
    -23.440  0.0000E+00  0.0000E+00  0.6000E+01  0.6000E+01
    -23.311  0.0000E+00  0.0000E+00  0.6000E+01  0.6000E+01
    -23.181  0.0000E+00  0.0000E+00  0.6000E+01  0.6000E+01
    -23.051  0.0000E+00  0.0000E+00  0.6000E+01  0.6000E+01
    -22.922  0.0000E+00  0.0000E+00  0.6000E+01  0.6000E+01
    -22.792  0.0000E+00  0.0000E+00  0.6000E+01  0.6000E+01
    -22.662  0.0000E+00  0.0000E+00  0.6000E+01  0.6000E+01
    -22.533  0.0000E+00  0.0000E+00  0.6000E+01  0.6000E+01
    -22.403  0.0000E+00  0.0000E+00  0.6000E+01  0.6000E+01
    -22.273  0.0000E+00  0.0000E+00  0.6000E+01  0.6000E+01
    -22.144  0.0000E+00  0.0000E+00  0.6000E+01  0.6000E+01
    -22.014  0.0000E+00  0.0000E+00  0.6000E+01  0.6000E+01
    -21.884  0.0000E+00  0.0000E+00  0.6000E+01  0.6000E+01
    -21.755  0.0000E+00  0.0000E+00  0.6000E+01  0.6000E+01
    -21.625  0.0000E+00  0.0000E+00  0.6000E+01  0.6000E+01
    -21.495  0.0000E+00  0.0000E+00  0.6000E+01  0.6000E+01
    -21.365  0.0000E+00  0.0000E+00  0.6000E+01  0.6000E+01
    -21.236  0.0000E+00  0.0000E+00  0.6000E+01  0.6000E+01
    -21.106  0.0000E+00  0.0000E+00  0.6000E+01  0.6000E+01
    -20.976  0.0000E+00  0.0000E+00  0.6000E+01  0.6000E+01
    -20.847  0.0000E+00  0.0000E+00  0.6000E+01  0.6000E+01
    -20.717  0.0000E+00  0.0000E+00  0.6000E+01  0.6000E+01
    -20.587  0.0000E+00  0.0000E+00  0.6000E+01  0.6000E+01
    -20.458  0.0000E+00  0.0000E+00  0.6000E+01  0.6000E+01
    -20.328  0.0000E+00  0.0000E+00  0.6000E+01  0.6000E+01
    -20.198  0.0000E+00  0.0000E+00  0.6000E+01  0.6000E+01
    -20.069  0.0000E+00  0.0000E+00  0.6000E+01  0.6000E+01
    -19.939  0.0000E+00  0.0000E+00  0.6000E+01  0.6000E+01
    -19.809  0.0000E+00  0.0000E+00  0.6000E+01  0.6000E+01
    -19.680  0.0000E+00  0.0000E+00  0.6000E+01  0.6000E+01
    -19.550  0.0000E+00  0.0000E+00  0.6000E+01  0.6000E+01
    -19.420  0.0000E+00  0.0000E+00  0.6000E+01  0.6000E+01
    -19.291  0.0000E+00  0.0000E+00  0.6000E+01  0.6000E+01
    -19.161  0.0000E+00  0.0000E+00  0.6000E+01  0.6000E+01
    -19.031  0.0000E+00  0.0000E+00  0.6000E+01  0.6000E+01
    -18.902  0.0000E+00  0.0000E+00  0.6000E+01  0.6000E+01
    -18.772  0.0000E+00  0.0000E+00  0.6000E+01  0.6000E+01
    -18.642  0.0000E+00  0.0000E+00  0.6000E+01  0.6000E+01
    -18.513  0.0000E+00  0.0000E+00  0.6000E+01  0.6000E+01
    -18.383  0.0000E+00  0.0000E+00  0.6000E+01  0.6000E+01
    -18.253  0.0000E+00  0.0000E+00  0.6000E+01  0.6000E+01
    -18.123  0.0000E+00  0.0000E+00  0.6000E+01  0.6000E+01
    -17.994  0.0000E+00  0.0000E+00  0.6000E+01  0.6000E+01
    -17.864  0.0000E+00  0.0000E+00  0.6000E+01  0.6000E+01
    -17.734  0.0000E+00  0.0000E+00  0.6000E+01  0.6000E+01
    -17.605  0.0000E+00  0.0000E+00  0.6000E+01  0.6000E+01
    -17.475  0.0000E+00  0.0000E+00  0.6000E+01  0.6000E+01
    -17.345  0.0000E+00  0.0000E+00  0.6000E+01  0.6000E+01
    -17.216  0.0000E+00  0.0000E+00  0.6000E+01  0.6000E+01
    -17.086  0.0000E+00  0.0000E+00  0.6000E+01  0.6000E+01
    -16.956  0.0000E+00  0.0000E+00  0.6000E+01  0.6000E+01
    -16.827  0.0000E+00  0.0000E+00  0.6000E+01  0.6000E+01
    -16.697  0.0000E+00  0.0000E+00  0.6000E+01  0.6000E+01
    -16.567  0.0000E+00  0.0000E+00  0.6000E+01  0.6000E+01
    -16.438  0.0000E+00  0.0000E+00  0.6000E+01  0.6000E+01
    -16.308  0.0000E+00  0.0000E+00  0.6000E+01  0.6000E+01
    -16.178  0.0000E+00  0.0000E+00  0.6000E+01  0.6000E+01
    -16.049  0.0000E+00  0.0000E+00  0.6000E+01  0.6000E+01
    -15.919  0.0000E+00  0.0000E+00  0.6000E+01  0.6000E+01
    -15.789  0.0000E+00  0.0000E+00  0.6000E+01  0.6000E+01
    -15.660  0.0000E+00  0.0000E+00  0.6000E+01  0.6000E+01
    -15.530  0.0000E+00  0.0000E+00  0.6000E+01  0.6000E+01
    -15.400  0.0000E+00  0.0000E+00  0.6000E+01  0.6000E+01
    -15.270  0.0000E+00  0.0000E+00  0.6000E+01  0.6000E+01
    -15.141  0.0000E+00  0.0000E+00  0.6000E+01  0.6000E+01
    -15.011  0.0000E+00  0.0000E+00  0.6000E+01  0.6000E+01
    -14.881  0.0000E+00  0.0000E+00  0.6000E+01  0.6000E+01
    -14.752  0.0000E+00  0.0000E+00  0.6000E+01  0.6000E+01
    -14.622  0.0000E+00  0.0000E+00  0.6000E+01  0.6000E+01
    -14.492  0.0000E+00  0.0000E+00  0.6000E+01  0.6000E+01
    -14.363  0.0000E+00  0.0000E+00  0.6000E+01  0.6000E+01
    -14.233  0.0000E+00  0.0000E+00  0.6000E+01  0.6000E+01
    -14.103  0.0000E+00  0.0000E+00  0.6000E+01  0.6000E+01
    -13.974  0.0000E+00  0.0000E+00  0.6000E+01  0.6000E+01
    -13.844  0.0000E+00  0.0000E+00  0.6000E+01  0.6000E+01
    -13.714  0.0000E+00  0.0000E+00  0.6000E+01  0.6000E+01
    -13.585  0.0000E+00  0.0000E+00  0.6000E+01  0.6000E+01
    -13.455  0.0000E+00  0.0000E+00  0.6000E+01  0.6000E+01
    -13.325  0.0000E+00  0.0000E+00  0.6000E+01  0.6000E+01
    -13.196  0.0000E+00  0.0000E+00  0.6000E+01  0.6000E+01
    -13.066  0.0000E+00  0.0000E+00  0.6000E+01  0.6000E+01
    -12.936  0.0000E+00  0.0000E+00  0.6000E+01  0.6000E+01
    -12.807  0.0000E+00  0.0000E+00  0.6000E+01  0.6000E+01
    -12.677  0.0000E+00  0.0000E+00  0.6000E+01  0.6000E+01
    -12.547  0.0000E+00  0.0000E+00  0.6000E+01  0.6000E+01
    -12.417  0.0000E+00  0.0000E+00  0.6000E+01  0.6000E+01
    -12.288  0.0000E+00  0.0000E+00  0.6000E+01  0.6000E+01
    -12.158  0.0000E+00  0.0000E+00  0.6000E+01  0.6000E+01
    -12.028  0.0000E+00  0.0000E+00  0.6000E+01  0.6000E+01
    -11.899  0.0000E+00  0.0000E+00  0.6000E+01  0.6000E+01
    -11.769  0.0000E+00  0.0000E+00  0.6000E+01  0.6000E+01
    -11.639  0.0000E+00  0.0000E+00  0.6000E+01  0.6000E+01
    -11.510  0.0000E+00  0.0000E+00  0.6000E+01  0.6000E+01
    -11.380  0.0000E+00  0.0000E+00  0.6000E+01  0.6000E+01
    -11.250  0.0000E+00  0.0000E+00  0.6000E+01  0.6000E+01
    -11.121  0.0000E+00  0.0000E+00  0.6000E+01  0.6000E+01
    -10.991  0.0000E+00  0.0000E+00  0.6000E+01  0.6000E+01
    -10.861  0.0000E+00  0.0000E+00  0.6000E+01  0.6000E+01
    -10.732  0.0000E+00  0.0000E+00  0.6000E+01  0.6000E+01
    -10.602  0.0000E+00  0.0000E+00  0.6000E+01  0.6000E+01
    -10.472  0.0000E+00  0.0000E+00  0.6000E+01  0.6000E+01
    -10.343  0.0000E+00  0.0000E+00  0.6000E+01  0.6000E+01
    -10.213  0.0000E+00  0.0000E+00  0.6000E+01  0.6000E+01
    -10.083  0.0000E+00  0.0000E+00  0.6000E+01  0.6000E+01
     -9.954  0.0000E+00  0.0000E+00  0.6000E+01  0.6000E+01
     -9.824  0.0000E+00  0.0000E+00  0.6000E+01  0.6000E+01
     -9.694  0.0000E+00  0.0000E+00  0.6000E+01  0.6000E+01
     -9.565  0.0000E+00  0.0000E+00  0.6000E+01  0.6000E+01
     -9.435  0.0000E+00  0.0000E+00  0.6000E+01  0.6000E+01
     -9.305  0.0000E+00  0.0000E+00  0.6000E+01  0.6000E+01
     -9.175  0.0000E+00  0.0000E+00  0.6000E+01  0.6000E+01
     -9.046  0.0000E+00  0.0000E+00  0.6000E+01  0.6000E+01
     -8.916  0.0000E+00  0.0000E+00  0.6000E+01  0.6000E+01
     -8.786  0.0000E+00  0.0000E+00  0.6000E+01  0.6000E+01
     -8.657  0.0000E+00  0.0000E+00  0.6000E+01  0.6000E+01
     -8.527  0.0000E+00  0.0000E+00  0.6000E+01  0.6000E+01
     -8.397  0.0000E+00  0.0000E+00  0.6000E+01  0.6000E+01
     -8.268  0.0000E+00  0.0000E+00  0.6000E+01  0.6000E+01
     -8.138  0.0000E+00  0.0000E+00  0.6000E+01  0.6000E+01
     -8.008  0.0000E+00  0.0000E+00  0.6000E+01  0.6000E+01
     -7.879  0.0000E+00  0.0000E+00  0.6000E+01  0.6000E+01
     -7.749  0.0000E+00  0.0000E+00  0.6000E+01  0.6000E+01
     -7.619  0.0000E+00  0.0000E+00  0.6000E+01  0.6000E+01
     -7.490  0.0000E+00  0.0000E+00  0.6000E+01  0.6000E+01
     -7.360  0.0000E+00  0.0000E+00  0.6000E+01  0.6000E+01
     -7.230  0.0000E+00  0.0000E+00  0.6000E+01  0.6000E+01
     -7.101  0.0000E+00  0.0000E+00  0.6000E+01  0.6000E+01
     -6.971  0.0000E+00  0.0000E+00  0.6000E+01  0.6000E+01
     -6.841  0.0000E+00  0.0000E+00  0.6000E+01  0.6000E+01
     -6.712  0.0000E+00  0.0000E+00  0.6000E+01  0.6000E+01
     -6.582  0.0000E+00  0.0000E+00  0.6000E+01  0.6000E+01
     -6.452  0.0000E+00  0.0000E+00  0.6000E+01  0.6000E+01
     -6.322  0.0000E+00  0.0000E+00  0.6000E+01  0.6000E+01
     -6.193  0.0000E+00  0.0000E+00  0.6000E+01  0.6000E+01
     -6.063  0.0000E+00  0.0000E+00  0.6000E+01  0.6000E+01
     -5.933  0.0000E+00  0.0000E+00  0.6000E+01  0.6000E+01
     -5.804  0.0000E+00  0.0000E+00  0.6000E+01  0.6000E+01
     -5.674  0.0000E+00  0.0000E+00  0.6000E+01  0.6000E+01
     -5.544  0.0000E+00  0.0000E+00  0.6000E+01  0.6000E+01
     -5.415  0.0000E+00  0.0000E+00  0.6000E+01  0.6000E+01
     -5.285  0.0000E+00  0.0000E+00  0.6000E+01  0.6000E+01
     -5.155  0.0000E+00  0.0000E+00  0.6000E+01  0.6000E+01
     -5.026  0.0000E+00  0.0000E+00  0.6000E+01  0.6000E+01
     -4.896  0.0000E+00  0.0000E+00  0.6000E+01  0.6000E+01
     -4.766  0.0000E+00  0.0000E+00  0.6000E+01  0.6000E+01
     -4.637  0.0000E+00  0.0000E+00  0.6000E+01  0.6000E+01
     -4.507  0.0000E+00  0.0000E+00  0.6000E+01  0.6000E+01
     -4.377  0.0000E+00  0.0000E+00  0.6000E+01  0.6000E+01
     -4.248  0.0000E+00  0.0000E+00  0.6000E+01  0.6000E+01
     -4.118  0.0000E+00  0.0000E+00  0.6000E+01  0.6000E+01
     -3.988  0.0000E+00  0.0000E+00  0.6000E+01  0.6000E+01
     -3.859  0.1667E-06  0.1683E-06  0.6000E+01  0.6000E+01
     -3.729  0.1015E-04  0.1026E-04  0.6000E+01  0.6000E+01
     -3.599  0.1430E-03  0.1444E-03  0.6000E+01  0.6000E+01
     -3.469  0.1905E-02  0.1924E-02  0.6000E+01  0.6000E+01
     -3.340  0.2034E-01  0.2051E-01  0.6003E+01  0.6003E+01
     -3.210  0.9625E-01  0.9662E-01  0.6015E+01  0.6015E+01
     -3.080  0.1871E+00  0.1875E+00  0.6040E+01  0.6040E+01
     -2.951  0.2508E+00  0.2508E+00  0.6072E+01  0.6072E+01
     -2.821  0.3074E+00  0.3076E+00  0.6112E+01  0.6112E+01
     -2.691  0.3568E+00  0.3569E+00  0.6158E+01  0.6159E+01
     -2.562  0.3877E+00  0.3878E+00  0.6209E+01  0.6209E+01
     -2.432  0.4183E+00  0.4187E+00  0.6263E+01  0.6263E+01
     -2.302  0.5063E+00  0.5063E+00  0.6329E+01  0.6329E+01
     -2.173  0.4851E+00  0.4851E+00  0.6392E+01  0.6392E+01
     -2.043  0.5104E+00  0.5108E+00  0.6458E+01  0.6458E+01
     -1.913  0.6192E+00  0.6194E+00  0.6538E+01  0.6539E+01
     -1.784  0.5986E+00  0.5985E+00  0.6616E+01  0.6616E+01
     -1.654  0.6358E+00  0.6361E+00  0.6699E+01  0.6699E+01
     -1.524  0.6817E+00  0.6816E+00  0.6787E+01  0.6788E+01
     -1.395  0.6595E+00  0.6599E+00  0.6873E+01  0.6873E+01
     -1.265  0.8084E+00  0.8090E+00  0.6978E+01  0.6978E+01
     -1.135  0.8142E+00  0.8137E+00  0.7084E+01  0.7084E+01
     -1.006  0.7532E+00  0.7534E+00  0.7181E+01  0.7182E+01
     -0.876  0.8487E+00  0.8492E+00  0.7292E+01  0.7292E+01
     -0.746  0.8984E+00  0.8985E+00  0.7408E+01  0.7409E+01
     -0.617  0.9508E+00  0.9512E+00  0.7532E+01  0.7532E+01
     -0.487  0.9722E+00  0.9721E+00  0.7658E+01  0.7659E+01
     -0.357  0.9844E+00  0.9844E+00  0.7786E+01  0.7786E+01
     -0.227  0.1010E+01  0.1010E+01  0.7917E+01  0.7918E+01
     -0.098  0.1075E+01  0.1075E+01  0.8057E+01  0.8057E+01
      0.032  0.1119E+01  0.1119E+01  0.8202E+01  0.8203E+01
      0.162  0.1204E+01  0.1205E+01  0.8358E+01  0.8359E+01
      0.291  0.1227E+01  0.1227E+01  0.8518E+01  0.8518E+01
      0.421  0.1066E+01  0.1065E+01  0.8656E+01  0.8657E+01
      0.551  0.1005E+01  0.1005E+01  0.8787E+01  0.8787E+01
      0.680  0.9454E+00  0.9450E+00  0.8910E+01  0.8910E+01
      0.810  0.1023E+01  0.1024E+01  0.9042E+01  0.9043E+01
      0.940  0.1134E+01  0.1133E+01  0.9190E+01  0.9190E+01
      1.069  0.1195E+01  0.1196E+01  0.9345E+01  0.9345E+01
      1.199  0.1399E+01  0.1400E+01  0.9526E+01  0.9527E+01
      1.329  0.1470E+01  0.1470E+01  0.9717E+01  0.9718E+01
      1.458  0.1365E+01  0.1365E+01  0.9895E+01  0.9895E+01
      1.588  0.1292E+01  0.1293E+01  0.1006E+02  0.1006E+02
      1.718  0.1498E+01  0.1498E+01  0.1026E+02  0.1026E+02
      1.847  0.1467E+01  0.1467E+01  0.1045E+02  0.1045E+02
      1.977  0.1376E+01  0.1375E+01  0.1063E+02  0.1063E+02
      2.107  0.1229E+01  0.1228E+01  0.1079E+02  0.1079E+02
      2.236  0.9851E+00  0.9843E+00  0.1091E+02  0.1091E+02
      2.366  0.1106E+01  0.1108E+01  0.1106E+02  0.1106E+02
      2.496  0.1776E+01  0.1777E+01  0.1129E+02  0.1129E+02
      2.626  0.1471E+01  0.1469E+01  0.1148E+02  0.1148E+02
      2.755  0.1142E+01  0.1142E+01  0.1163E+02  0.1163E+02
      2.885  0.1245E+01  0.1246E+01  0.1179E+02  0.1179E+02
      3.015  0.1446E+01  0.1447E+01  0.1198E+02  0.1198E+02
      3.144  0.1491E+01  0.1491E+01  0.1217E+02  0.1217E+02
      3.274  0.1792E+01  0.1793E+01  0.1240E+02  0.1240E+02
      3.404  0.1781E+01  0.1781E+01  0.1263E+02  0.1264E+02
      3.533  0.1635E+01  0.1634E+01  0.1285E+02  0.1285E+02
      3.663  0.1796E+01  0.1796E+01  0.1308E+02  0.1308E+02
      3.793  0.1810E+01  0.1809E+01  0.1332E+02  0.1332E+02
      3.922  0.1728E+01  0.1727E+01  0.1354E+02  0.1354E+02
      4.052  0.1779E+01  0.1780E+01  0.1377E+02  0.1377E+02
      4.182  0.1915E+01  0.1915E+01  0.1402E+02  0.1402E+02
      4.311  0.2072E+01  0.2072E+01  0.1429E+02  0.1429E+02
      4.441  0.2315E+01  0.2316E+01  0.1459E+02  0.1459E+02
      4.571  0.3064E+01  0.3066E+01  0.1499E+02  0.1499E+02
      4.700  0.3490E+01  0.3488E+01  0.1544E+02  0.1544E+02
      4.830  0.2613E+01  0.2609E+01  0.1578E+02  0.1578E+02
      4.960  0.2016E+01  0.2015E+01  0.1604E+02  0.1604E+02
      5.089  0.1883E+01  0.1883E+01  0.1629E+02  0.1629E+02
      5.219  0.2135E+01  0.2135E+01  0.1656E+02  0.1656E+02
      5.349  0.2335E+01  0.2335E+01  0.1687E+02  0.1687E+02
      5.479  0.2305E+01  0.2305E+01  0.1717E+02  0.1717E+02
      5.608  0.2358E+01  0.2357E+01  0.1747E+02  0.1747E+02
      5.738  0.2589E+01  0.2588E+01  0.1781E+02  0.1781E+02
      5.868  0.3266E+01  0.3265E+01  0.1823E+02  0.1823E+02
      5.997  0.2878E+01  0.2877E+01  0.1861E+02  0.1861E+02
      6.127  0.2409E+01  0.2409E+01  0.1892E+02  0.1892E+02
      6.257  0.1979E+01  0.1979E+01  0.1918E+02  0.1918E+02
      6.386  0.1590E+01  0.1590E+01  0.1938E+02  0.1938E+02
      6.516  0.1358E+01  0.1358E+01  0.1956E+02  0.1956E+02
      6.646  0.1210E+01  0.1210E+01  0.1972E+02  0.1972E+02
      6.775  0.1088E+01  0.1088E+01  0.1986E+02  0.1986E+02
      6.905  0.1177E+01  0.1177E+01  0.2001E+02  0.2001E+02
      7.035  0.1455E+01  0.1455E+01  0.2020E+02  0.2020E+02
      7.164  0.1910E+01  0.1911E+01  0.2045E+02  0.2045E+02
      7.294  0.1765E+01  0.1765E+01  0.2068E+02  0.2068E+02
      7.424  0.1765E+01  0.1766E+01  0.2091E+02  0.2091E+02
      7.553  0.2100E+01  0.2101E+01  0.2118E+02  0.2118E+02
      7.683  0.2436E+01  0.2436E+01  0.2150E+02  0.2150E+02
      7.813  0.2933E+01  0.2932E+01  0.2188E+02  0.2188E+02
      7.942  0.3419E+01  0.3419E+01  0.2232E+02  0.2232E+02
      8.072  0.3375E+01  0.3373E+01  0.2276E+02  0.2276E+02
      8.202  0.3704E+01  0.3704E+01  0.2324E+02  0.2324E+02
      8.331  0.3410E+01  0.3410E+01  0.2368E+02  0.2368E+02
      8.461  0.3139E+01  0.3139E+01  0.2409E+02  0.2409E+02
      8.591  0.3192E+01  0.3192E+01  0.2450E+02  0.2450E+02
      8.721  0.3721E+01  0.3721E+01  0.2499E+02  0.2499E+02
      8.850  0.3802E+01  0.3804E+01  0.2548E+02  0.2548E+02
      8.980  0.2796E+01  0.2797E+01  0.2584E+02  0.2585E+02
      9.110  0.1982E+01  0.1982E+01  0.2610E+02  0.2610E+02
      9.239  0.1635E+01  0.1641E+01  0.2632E+02  0.2632E+02
      9.369  0.1782E+01  0.1789E+01  0.2655E+02  0.2655E+02
      9.499  0.2292E+01  0.2280E+01  0.2684E+02  0.2685E+02
      9.628  0.2392E+01  0.2391E+01  0.2716E+02  0.2716E+02
      9.758  0.1836E+01  0.1840E+01  0.2739E+02  0.2739E+02
      9.888  0.1486E+01  0.1483E+01  0.2759E+02  0.2759E+02
     10.017  0.1274E+01  0.1276E+01  0.2775E+02  0.2775E+02
     10.147  0.8236E+00  0.8400E+00  0.2786E+02  0.2786E+02
     10.277  0.5254E+00  0.5504E+00  0.2793E+02  0.2793E+02
     10.406  0.3325E+00  0.3120E+00  0.2797E+02  0.2798E+02
     10.536  0.1436E+00  0.1189E+00  0.2799E+02  0.2799E+02
     10.666  0.2457E-01  0.2120E-01  0.2799E+02  0.2799E+02
     10.795  0.2214E-01  0.2235E-01  0.2800E+02  0.2800E+02
     10.925  0.2015E-01  0.1993E-01  0.2800E+02  0.2800E+02
     11.055  0.4376E-02  0.4238E-02  0.2800E+02  0.2800E+02
     11.184  0.3409E-03  0.3283E-03  0.2800E+02  0.2800E+02
     11.314  0.0000E+00  0.0000E+00  0.2800E+02  0.2800E+02
     11.444  0.0000E+00  0.0000E+00  0.2800E+02  0.2800E+02
     11.574  0.0000E+00  0.0000E+00  0.2800E+02  0.2800E+02
     11.703  0.0000E+00  0.0000E+00  0.2800E+02  0.2800E+02
     11.833  0.0000E+00  0.0000E+00  0.2800E+02  0.2800E+02
     11.963  0.0000E+00  0.0000E+00  0.2800E+02  0.2800E+02
     12.092  0.0000E+00  0.0000E+00  0.2800E+02  0.2800E+02
     12.222  0.0000E+00  0.0000E+00  0.2800E+02  0.2800E+02
     12.352  0.0000E+00  0.0000E+00  0.2800E+02  0.2800E+02
     12.481  0.0000E+00  0.0000E+00  0.2800E+02  0.2800E+02
     12.611  0.0000E+00  0.0000E+00  0.2800E+02  0.2800E+02
     12.61097279    -26.29338194  301      6.16348594      1.00000000
    -26.293  0.0000E+00  0.0000E+00  0.0000E+00  0.0000E+00  0.0000E+00  0.0000E+00  0.0000E+00  0.0000E+00  0.0000E+00  0.0000E+00  0.0000E+00  0.0000E+00  0.0000E+00  0.0000E+00  0.0000E+00  0.0000E+00  0.0000E+00  0.0000E+00
    -26.164  0.0000E+00  0.0000E+00  0.0000E+00  0.0000E+00  0.0000E+00  0.0000E+00  0.0000E+00  0.0000E+00  0.0000E+00  0.0000E+00  0.0000E+00  0.0000E+00  0.0000E+00  0.0000E+00  0.0000E+00  0.0000E+00  0.0000E+00  0.0000E+00
    -26.034  0.0000E+00  0.0000E+00  0.0000E+00  0.0000E+00  0.0000E+00  0.0000E+00  0.0000E+00  0.0000E+00  0.0000E+00  0.0000E+00  0.0000E+00  0.0000E+00  0.0000E+00  0.0000E+00  0.0000E+00  0.0000E+00  0.0000E+00  0.0000E+00
    -25.904  0.0000E+00  0.0000E+00  0.0000E+00  0.0000E+00  0.0000E+00  0.0000E+00  0.0000E+00  0.0000E+00  0.0000E+00  0.0000E+00  0.0000E+00  0.0000E+00  0.0000E+00  0.0000E+00  0.0000E+00  0.0000E+00  0.0000E+00  0.0000E+00
    -25.775  0.0000E+00  0.0000E+00  0.0000E+00  0.0000E+00  0.0000E+00  0.0000E+00  0.0000E+00  0.0000E+00  0.0000E+00  0.0000E+00  0.0000E+00  0.0000E+00  0.0000E+00  0.0000E+00  0.0000E+00  0.0000E+00  0.0000E+00  0.0000E+00
    -25.645  0.0000E+00  0.0000E+00  0.0000E+00  0.0000E+00  0.0000E+00  0.0000E+00  0.0000E+00  0.0000E+00  0.0000E+00  0.0000E+00  0.0000E+00  0.0000E+00  0.0000E+00  0.0000E+00  0.0000E+00  0.0000E+00  0.0000E+00  0.0000E+00
    -25.515  0.0000E+00  0.0000E+00  0.0000E+00  0.0000E+00  0.0000E+00  0.0000E+00  0.0000E+00  0.0000E+00  0.0000E+00  0.0000E+00  0.0000E+00  0.0000E+00  0.0000E+00  0.0000E+00  0.0000E+00  0.0000E+00  0.0000E+00  0.0000E+00
    -25.386  0.0000E+00  0.0000E+00  0.0000E+00  0.0000E+00  0.0000E+00  0.0000E+00  0.0000E+00  0.0000E+00  0.0000E+00  0.0000E+00  0.0000E+00  0.0000E+00  0.0000E+00  0.0000E+00  0.0000E+00  0.0000E+00  0.0000E+00  0.0000E+00
    -25.256  0.0000E+00  0.0000E+00  0.0000E+00  0.0000E+00  0.0000E+00  0.0000E+00  0.0000E+00  0.0000E+00  0.0000E+00  0.0000E+00  0.0000E+00  0.0000E+00  0.0000E+00  0.0000E+00  0.0000E+00  0.0000E+00  0.0000E+00  0.0000E+00
    -25.126  0.0000E+00  0.0000E+00  0.0000E+00  0.0000E+00  0.0000E+00  0.0000E+00  0.0000E+00  0.0000E+00  0.0000E+00  0.0000E+00  0.0000E+00  0.0000E+00  0.0000E+00  0.0000E+00  0.0000E+00  0.0000E+00  0.0000E+00  0.0000E+00
    -24.997  0.1544E-09  0.1533E-09  0.4831E-03  0.4801E-03  0.1550E-07  0.1534E-07  0.4831E-03  0.4801E-03  0.7595E-11  0.7513E-11  0.4848E-12  0.4704E-12  0.6180E-10  0.6138E-10  0.4848E-12  0.4704E-12  0.1821E-09  0.1809E-09
    -24.867  0.1912E-08  0.1898E-08  0.5974E-02  0.5937E-02  0.4926E-03  0.4866E-03  0.5974E-02  0.5937E-02  0.9416E-10  0.9313E-10  0.1082E-10  0.1054E-10  0.7648E-09  0.7596E-09  0.1082E-10  0.1054E-10  0.2252E-08  0.2237E-08
    -24.737  0.2528E-07  0.2511E-07  0.7901E-01  0.7852E-01  0.6092E-02  0.6018E-02  0.7901E-01  0.7852E-01  0.1245E-08  0.1231E-08  0.1390E-09  0.1353E-09  0.1012E-07  0.1005E-07  0.1390E-09  0.1353E-09  0.2979E-07  0.2959E-07
    -24.608  0.2933E-06  0.2915E-06  0.9151E+00  0.9103E+00  0.8056E-01  0.7959E-01  0.9151E+00  0.9103E+00  0.1436E-07  0.1421E-07  0.1702E-08  0.1658E-08  0.1174E-06  0.1167E-06  0.1702E-08  0.1658E-08  0.3458E-06  0.3439E-06
    -24.478  0.1305E-05  0.1302E-05  0.4053E+01  0.4048E+01  0.9329E+00  0.9231E+00  0.4053E+01  0.4048E+01  0.6245E-07  0.6205E-07  0.1304E-07  0.1275E-07  0.5221E-06  0.5212E-06  0.1304E-07  0.1275E-07  0.1543E-05  0.1541E-05
    -24.348  0.7293E-06  0.7315E-06  0.2238E+01  0.2247E+01  0.4090E+01  0.4081E+01  0.2238E+01  0.2247E+01  0.3519E-07  0.3506E-07  0.4181E-07  0.4125E-07  0.2905E-06  0.2914E-06  0.4181E-07  0.4125E-07  0.8517E-06  0.8547E-06
    -24.218  0.8782E-07  0.8832E-07  0.2516E+00  0.2531E+00  0.2189E+01  0.2207E+01  0.2516E+00  0.2531E+00  0.4752E-08  0.4721E-08  0.2130E-07  0.2123E-07  0.3430E-07  0.3442E-07  0.2130E-07  0.2123E-07  0.9543E-07  0.9597E-07
    -24.089  0.8768E-09  0.8899E-09  0.3620E-05  0.3647E-05  0.2416E+00  0.2444E+00  0.3620E-05  0.3647E-05  0.1177E-09  0.1144E-09  0.2316E-08  0.2319E-08  0.2526E-09  0.2468E-09  0.2316E-08  0.2319E-08  0.1731E-11  0.1525E-11
    -23.959  0.0000E+00  0.0000E+00  0.0000E+00  0.0000E+00  0.0000E+00  0.0000E+00  0.0000E+00  0.0000E+00  0.0000E+00  0.0000E+00  0.0000E+00  0.0000E+00  0.0000E+00  0.0000E+00  0.0000E+00  0.0000E+00  0.0000E+00  0.0000E+00
    -23.829  0.0000E+00  0.0000E+00  0.0000E+00  0.0000E+00  0.0000E+00  0.0000E+00  0.0000E+00  0.0000E+00  0.0000E+00  0.0000E+00  0.0000E+00  0.0000E+00  0.0000E+00  0.0000E+00  0.0000E+00  0.0000E+00  0.0000E+00  0.0000E+00
    -23.700  0.0000E+00  0.0000E+00  0.0000E+00  0.0000E+00  0.0000E+00  0.0000E+00  0.0000E+00  0.0000E+00  0.0000E+00  0.0000E+00  0.0000E+00  0.0000E+00  0.0000E+00  0.0000E+00  0.0000E+00  0.0000E+00  0.0000E+00  0.0000E+00
    -23.570  0.0000E+00  0.0000E+00  0.0000E+00  0.0000E+00  0.0000E+00  0.0000E+00  0.0000E+00  0.0000E+00  0.0000E+00  0.0000E+00  0.0000E+00  0.0000E+00  0.0000E+00  0.0000E+00  0.0000E+00  0.0000E+00  0.0000E+00  0.0000E+00
    -23.440  0.0000E+00  0.0000E+00  0.0000E+00  0.0000E+00  0.0000E+00  0.0000E+00  0.0000E+00  0.0000E+00  0.0000E+00  0.0000E+00  0.0000E+00  0.0000E+00  0.0000E+00  0.0000E+00  0.0000E+00  0.0000E+00  0.0000E+00  0.0000E+00
    -23.311  0.0000E+00  0.0000E+00  0.0000E+00  0.0000E+00  0.0000E+00  0.0000E+00  0.0000E+00  0.0000E+00  0.0000E+00  0.0000E+00  0.0000E+00  0.0000E+00  0.0000E+00  0.0000E+00  0.0000E+00  0.0000E+00  0.0000E+00  0.0000E+00
    -23.181  0.0000E+00  0.0000E+00  0.0000E+00  0.0000E+00  0.0000E+00  0.0000E+00  0.0000E+00  0.0000E+00  0.0000E+00  0.0000E+00  0.0000E+00  0.0000E+00  0.0000E+00  0.0000E+00  0.0000E+00  0.0000E+00  0.0000E+00  0.0000E+00
    -23.051  0.0000E+00  0.0000E+00  0.0000E+00  0.0000E+00  0.0000E+00  0.0000E+00  0.0000E+00  0.0000E+00  0.0000E+00  0.0000E+00  0.0000E+00  0.0000E+00  0.0000E+00  0.0000E+00  0.0000E+00  0.0000E+00  0.0000E+00  0.0000E+00
    -22.922  0.0000E+00  0.0000E+00  0.0000E+00  0.0000E+00  0.0000E+00  0.0000E+00  0.0000E+00  0.0000E+00  0.0000E+00  0.0000E+00  0.0000E+00  0.0000E+00  0.0000E+00  0.0000E+00  0.0000E+00  0.0000E+00  0.0000E+00  0.0000E+00
    -22.792  0.0000E+00  0.0000E+00  0.0000E+00  0.0000E+00  0.0000E+00  0.0000E+00  0.0000E+00  0.0000E+00  0.0000E+00  0.0000E+00  0.0000E+00  0.0000E+00  0.0000E+00  0.0000E+00  0.0000E+00  0.0000E+00  0.0000E+00  0.0000E+00
    -22.662  0.0000E+00  0.0000E+00  0.0000E+00  0.0000E+00  0.0000E+00  0.0000E+00  0.0000E+00  0.0000E+00  0.0000E+00  0.0000E+00  0.0000E+00  0.0000E+00  0.0000E+00  0.0000E+00  0.0000E+00  0.0000E+00  0.0000E+00  0.0000E+00
    -22.533  0.0000E+00  0.0000E+00  0.0000E+00  0.0000E+00  0.0000E+00  0.0000E+00  0.0000E+00  0.0000E+00  0.0000E+00  0.0000E+00  0.0000E+00  0.0000E+00  0.0000E+00  0.0000E+00  0.0000E+00  0.0000E+00  0.0000E+00  0.0000E+00
    -22.403  0.0000E+00  0.0000E+00  0.0000E+00  0.0000E+00  0.0000E+00  0.0000E+00  0.0000E+00  0.0000E+00  0.0000E+00  0.0000E+00  0.0000E+00  0.0000E+00  0.0000E+00  0.0000E+00  0.0000E+00  0.0000E+00  0.0000E+00  0.0000E+00
    -22.273  0.0000E+00  0.0000E+00  0.0000E+00  0.0000E+00  0.0000E+00  0.0000E+00  0.0000E+00  0.0000E+00  0.0000E+00  0.0000E+00  0.0000E+00  0.0000E+00  0.0000E+00  0.0000E+00  0.0000E+00  0.0000E+00  0.0000E+00  0.0000E+00
    -22.144  0.0000E+00  0.0000E+00  0.0000E+00  0.0000E+00  0.0000E+00  0.0000E+00  0.0000E+00  0.0000E+00  0.0000E+00  0.0000E+00  0.0000E+00  0.0000E+00  0.0000E+00  0.0000E+00  0.0000E+00  0.0000E+00  0.0000E+00  0.0000E+00
    -22.014  0.0000E+00  0.0000E+00  0.0000E+00  0.0000E+00  0.0000E+00  0.0000E+00  0.0000E+00  0.0000E+00  0.0000E+00  0.0000E+00  0.0000E+00  0.0000E+00  0.0000E+00  0.0000E+00  0.0000E+00  0.0000E+00  0.0000E+00  0.0000E+00
    -21.884  0.0000E+00  0.0000E+00  0.0000E+00  0.0000E+00  0.0000E+00  0.0000E+00  0.0000E+00  0.0000E+00  0.0000E+00  0.0000E+00  0.0000E+00  0.0000E+00  0.0000E+00  0.0000E+00  0.0000E+00  0.0000E+00  0.0000E+00  0.0000E+00
    -21.755  0.0000E+00  0.0000E+00  0.0000E+00  0.0000E+00  0.0000E+00  0.0000E+00  0.0000E+00  0.0000E+00  0.0000E+00  0.0000E+00  0.0000E+00  0.0000E+00  0.0000E+00  0.0000E+00  0.0000E+00  0.0000E+00  0.0000E+00  0.0000E+00
    -21.625  0.0000E+00  0.0000E+00  0.0000E+00  0.0000E+00  0.0000E+00  0.0000E+00  0.0000E+00  0.0000E+00  0.0000E+00  0.0000E+00  0.0000E+00  0.0000E+00  0.0000E+00  0.0000E+00  0.0000E+00  0.0000E+00  0.0000E+00  0.0000E+00
    -21.495  0.0000E+00  0.0000E+00  0.0000E+00  0.0000E+00  0.0000E+00  0.0000E+00  0.0000E+00  0.0000E+00  0.0000E+00  0.0000E+00  0.0000E+00  0.0000E+00  0.0000E+00  0.0000E+00  0.0000E+00  0.0000E+00  0.0000E+00  0.0000E+00
    -21.365  0.0000E+00  0.0000E+00  0.0000E+00  0.0000E+00  0.0000E+00  0.0000E+00  0.0000E+00  0.0000E+00  0.0000E+00  0.0000E+00  0.0000E+00  0.0000E+00  0.0000E+00  0.0000E+00  0.0000E+00  0.0000E+00  0.0000E+00  0.0000E+00
    -21.236  0.0000E+00  0.0000E+00  0.0000E+00  0.0000E+00  0.0000E+00  0.0000E+00  0.0000E+00  0.0000E+00  0.0000E+00  0.0000E+00  0.0000E+00  0.0000E+00  0.0000E+00  0.0000E+00  0.0000E+00  0.0000E+00  0.0000E+00  0.0000E+00
    -21.106  0.0000E+00  0.0000E+00  0.0000E+00  0.0000E+00  0.0000E+00  0.0000E+00  0.0000E+00  0.0000E+00  0.0000E+00  0.0000E+00  0.0000E+00  0.0000E+00  0.0000E+00  0.0000E+00  0.0000E+00  0.0000E+00  0.0000E+00  0.0000E+00
    -20.976  0.0000E+00  0.0000E+00  0.0000E+00  0.0000E+00  0.0000E+00  0.0000E+00  0.0000E+00  0.0000E+00  0.0000E+00  0.0000E+00  0.0000E+00  0.0000E+00  0.0000E+00  0.0000E+00  0.0000E+00  0.0000E+00  0.0000E+00  0.0000E+00
    -20.847  0.0000E+00  0.0000E+00  0.0000E+00  0.0000E+00  0.0000E+00  0.0000E+00  0.0000E+00  0.0000E+00  0.0000E+00  0.0000E+00  0.0000E+00  0.0000E+00  0.0000E+00  0.0000E+00  0.0000E+00  0.0000E+00  0.0000E+00  0.0000E+00
    -20.717  0.0000E+00  0.0000E+00  0.0000E+00  0.0000E+00  0.0000E+00  0.0000E+00  0.0000E+00  0.0000E+00  0.0000E+00  0.0000E+00  0.0000E+00  0.0000E+00  0.0000E+00  0.0000E+00  0.0000E+00  0.0000E+00  0.0000E+00  0.0000E+00
    -20.587  0.0000E+00  0.0000E+00  0.0000E+00  0.0000E+00  0.0000E+00  0.0000E+00  0.0000E+00  0.0000E+00  0.0000E+00  0.0000E+00  0.0000E+00  0.0000E+00  0.0000E+00  0.0000E+00  0.0000E+00  0.0000E+00  0.0000E+00  0.0000E+00
    -20.458  0.0000E+00  0.0000E+00  0.0000E+00  0.0000E+00  0.0000E+00  0.0000E+00  0.0000E+00  0.0000E+00  0.0000E+00  0.0000E+00  0.0000E+00  0.0000E+00  0.0000E+00  0.0000E+00  0.0000E+00  0.0000E+00  0.0000E+00  0.0000E+00
    -20.328  0.0000E+00  0.0000E+00  0.0000E+00  0.0000E+00  0.0000E+00  0.0000E+00  0.0000E+00  0.0000E+00  0.0000E+00  0.0000E+00  0.0000E+00  0.0000E+00  0.0000E+00  0.0000E+00  0.0000E+00  0.0000E+00  0.0000E+00  0.0000E+00
    -20.198  0.0000E+00  0.0000E+00  0.0000E+00  0.0000E+00  0.0000E+00  0.0000E+00  0.0000E+00  0.0000E+00  0.0000E+00  0.0000E+00  0.0000E+00  0.0000E+00  0.0000E+00  0.0000E+00  0.0000E+00  0.0000E+00  0.0000E+00  0.0000E+00
    -20.069  0.0000E+00  0.0000E+00  0.0000E+00  0.0000E+00  0.0000E+00  0.0000E+00  0.0000E+00  0.0000E+00  0.0000E+00  0.0000E+00  0.0000E+00  0.0000E+00  0.0000E+00  0.0000E+00  0.0000E+00  0.0000E+00  0.0000E+00  0.0000E+00
    -19.939  0.0000E+00  0.0000E+00  0.0000E+00  0.0000E+00  0.0000E+00  0.0000E+00  0.0000E+00  0.0000E+00  0.0000E+00  0.0000E+00  0.0000E+00  0.0000E+00  0.0000E+00  0.0000E+00  0.0000E+00  0.0000E+00  0.0000E+00  0.0000E+00
    -19.809  0.0000E+00  0.0000E+00  0.0000E+00  0.0000E+00  0.0000E+00  0.0000E+00  0.0000E+00  0.0000E+00  0.0000E+00  0.0000E+00  0.0000E+00  0.0000E+00  0.0000E+00  0.0000E+00  0.0000E+00  0.0000E+00  0.0000E+00  0.0000E+00