   8   8   1   0
  0.1358599E+02  0.3787771E-09  0.3787771E-09  0.7575542E-09  0.5000000E-15
  1.000000000000000E-004
  CAR 
 unknown system                          
     17.64858006    -22.17088044  301      9.31602088      1.00000000
    -22.171  0.0000E+00  0.0000E+00  0.0000E+00  0.0000E+00
    -22.038  0.0000E+00  0.0000E+00  0.0000E+00  0.0000E+00
    -21.905  0.0000E+00  0.0000E+00  0.0000E+00  0.0000E+00
    -21.773  0.0000E+00  0.0000E+00  0.0000E+00  0.0000E+00
    -21.640  0.0000E+00  0.0000E+00  0.0000E+00  0.0000E+00
    -21.507  0.0000E+00  0.0000E+00  0.0000E+00  0.0000E+00
    -21.374  0.0000E+00  0.0000E+00  0.0000E+00  0.0000E+00
    -21.242  0.0000E+00  0.0000E+00  0.0000E+00  0.0000E+00
    -21.109  0.0000E+00  0.0000E+00  0.0000E+00  0.0000E+00
    -20.976  0.0000E+00  0.0000E+00  0.0000E+00  0.0000E+00
    -20.844  0.5642E-03  0.5859E-03  0.7488E-04  0.7776E-04
    -20.711  0.1047E-01  0.1080E-01  0.1464E-02  0.1511E-02
    -20.578  0.1448E+00  0.1494E+00  0.2068E-01  0.2134E-01
    -20.445  0.1876E+01  0.1930E+01  0.2697E+00  0.2775E+00
    -20.313  0.1260E+02  0.1277E+02  0.1941E+01  0.1972E+01
    -20.180  0.2100E+02  0.2090E+02  0.4729E+01  0.4747E+01
    -20.047  0.8558E+01  0.8440E+01  0.5864E+01  0.5867E+01
    -19.914  0.9123E+00  0.8945E+00  0.5990E+01  0.5991E+01
    -19.782  0.0000E+00  0.0000E+00  0.6000E+01  0.6000E+01
    -19.649  0.0000E+00  0.0000E+00  0.6000E+01  0.6000E+01
    -19.516  0.0000E+00  0.0000E+00  0.6000E+01  0.6000E+01
    -19.384  0.0000E+00  0.0000E+00  0.6000E+01  0.6000E+01
    -19.251  0.0000E+00  0.0000E+00  0.6000E+01  0.6000E+01
    -19.118  0.0000E+00  0.0000E+00  0.6000E+01  0.6000E+01
    -18.985  0.0000E+00  0.0000E+00  0.6000E+01  0.6000E+01
    -18.853  0.0000E+00  0.0000E+00  0.6000E+01  0.6000E+01
    -18.720  0.0000E+00  0.0000E+00  0.6000E+01  0.6000E+01
    -18.587  0.0000E+00  0.0000E+00  0.6000E+01  0.6000E+01
    -18.454  0.0000E+00  0.0000E+00  0.6000E+01  0.6000E+01
    -18.322  0.0000E+00  0.0000E+00  0.6000E+01  0.6000E+01
    -18.189  0.0000E+00  0.0000E+00  0.6000E+01  0.6000E+01
    -18.056  0.0000E+00  0.0000E+00  0.6000E+01  0.6000E+01
    -17.923  0.0000E+00  0.0000E+00  0.6000E+01  0.6000E+01
    -17.791  0.0000E+00  0.0000E+00  0.6000E+01  0.6000E+01
    -17.658  0.0000E+00  0.0000E+00  0.6000E+01  0.6000E+01
    -17.525  0.0000E+00  0.0000E+00  0.6000E+01  0.6000E+01
    -17.393  0.0000E+00  0.0000E+00  0.6000E+01  0.6000E+01
    -17.260  0.0000E+00  0.0000E+00  0.6000E+01  0.6000E+01
    -17.127  0.0000E+00  0.0000E+00  0.6000E+01  0.6000E+01
    -16.994  0.0000E+00  0.0000E+00  0.6000E+01  0.6000E+01
    -16.862  0.0000E+00  0.0000E+00  0.6000E+01  0.6000E+01
    -16.729  0.0000E+00  0.0000E+00  0.6000E+01  0.6000E+01
    -16.596  0.0000E+00  0.0000E+00  0.6000E+01  0.6000E+01
    -16.463  0.0000E+00  0.0000E+00  0.6000E+01  0.6000E+01
    -16.331  0.0000E+00  0.0000E+00  0.6000E+01  0.6000E+01
    -16.198  0.0000E+00  0.0000E+00  0.6000E+01  0.6000E+01
    -16.065  0.0000E+00  0.0000E+00  0.6000E+01  0.6000E+01
    -15.932  0.0000E+00  0.0000E+00  0.6000E+01  0.6000E+01
    -15.800  0.0000E+00  0.0000E+00  0.6000E+01  0.6000E+01
    -15.667  0.0000E+00  0.0000E+00  0.6000E+01  0.6000E+01
    -15.534  0.0000E+00  0.0000E+00  0.6000E+01  0.6000E+01
    -15.402  0.0000E+00  0.0000E+00  0.6000E+01  0.6000E+01
    -15.269  0.0000E+00  0.0000E+00  0.6000E+01  0.6000E+01
    -15.136  0.0000E+00  0.0000E+00  0.6000E+01  0.6000E+01
    -15.003  0.0000E+00  0.0000E+00  0.6000E+01  0.6000E+01
    -14.871  0.0000E+00  0.0000E+00  0.6000E+01  0.6000E+01
    -14.738  0.0000E+00  0.0000E+00  0.6000E+01  0.6000E+01
    -14.605  0.0000E+00  0.0000E+00  0.6000E+01  0.6000E+01
    -14.472  0.0000E+00  0.0000E+00  0.6000E+01  0.6000E+01
    -14.340  0.0000E+00  0.0000E+00  0.6000E+01  0.6000E+01
    -14.207  0.0000E+00  0.0000E+00  0.6000E+01  0.6000E+01
    -14.074  0.0000E+00  0.0000E+00  0.6000E+01  0.6000E+01
    -13.942  0.0000E+00  0.0000E+00  0.6000E+01  0.6000E+01
    -13.809  0.0000E+00  0.0000E+00  0.6000E+01  0.6000E+01
    -13.676  0.0000E+00  0.0000E+00  0.6000E+01  0.6000E+01
    -13.543  0.0000E+00  0.0000E+00  0.6000E+01  0.6000E+01
    -13.411  0.0000E+00  0.0000E+00  0.6000E+01  0.6000E+01
    -13.278  0.0000E+00  0.0000E+00  0.6000E+01  0.6000E+01
    -13.145  0.0000E+00  0.0000E+00  0.6000E+01  0.6000E+01
    -13.012  0.0000E+00  0.0000E+00  0.6000E+01  0.6000E+01
    -12.880  0.0000E+00  0.0000E+00  0.6000E+01  0.6000E+01
    -12.747  0.0000E+00  0.0000E+00  0.6000E+01  0.6000E+01
    -12.614  0.0000E+00  0.0000E+00  0.6000E+01  0.6000E+01
    -12.481  0.0000E+00  0.0000E+00  0.6000E+01  0.6000E+01
    -12.349  0.0000E+00  0.0000E+00  0.6000E+01  0.6000E+01
    -12.216  0.0000E+00  0.0000E+00  0.6000E+01  0.6000E+01
    -12.083  0.0000E+00  0.0000E+00  0.6000E+01  0.6000E+01
    -11.951  0.0000E+00  0.0000E+00  0.6000E+01  0.6000E+01
    -11.818  0.0000E+00  0.0000E+00  0.6000E+01  0.6000E+01
    -11.685  0.0000E+00  0.0000E+00  0.6000E+01  0.6000E+01
    -11.552  0.0000E+00  0.0000E+00  0.6000E+01  0.6000E+01
    -11.420  0.0000E+00  0.0000E+00  0.6000E+01  0.6000E+01
    -11.287  0.0000E+00  0.0000E+00  0.6000E+01  0.6000E+01
    -11.154  0.0000E+00  0.0000E+00  0.6000E+01  0.6000E+01
    -11.021  0.0000E+00  0.0000E+00  0.6000E+01  0.6000E+01
    -10.889  0.0000E+00  0.0000E+00  0.6000E+01  0.6000E+01
    -10.756  0.0000E+00  0.0000E+00  0.6000E+01  0.6000E+01
    -10.623  0.0000E+00  0.0000E+00  0.6000E+01  0.6000E+01
    -10.491  0.0000E+00  0.0000E+00  0.6000E+01  0.6000E+01
    -10.358  0.0000E+00  0.0000E+00  0.6000E+01  0.6000E+01
    -10.225  0.0000E+00  0.0000E+00  0.6000E+01  0.6000E+01
    -10.092  0.0000E+00  0.0000E+00  0.6000E+01  0.6000E+01
     -9.960  0.0000E+00  0.0000E+00  0.6000E+01  0.6000E+01
     -9.827  0.0000E+00  0.0000E+00  0.6000E+01  0.6000E+01
     -9.694  0.0000E+00  0.0000E+00  0.6000E+01  0.6000E+01
     -9.561  0.0000E+00  0.0000E+00  0.6000E+01  0.6000E+01
     -9.429  0.0000E+00  0.0000E+00  0.6000E+01  0.6000E+01
     -9.296  0.0000E+00  0.0000E+00  0.6000E+01  0.6000E+01
     -9.163  0.0000E+00  0.0000E+00  0.6000E+01  0.6000E+01
     -9.030  0.0000E+00  0.0000E+00  0.6000E+01  0.6000E+01
     -8.898  0.0000E+00  0.0000E+00  0.6000E+01  0.6000E+01
     -8.765  0.0000E+00  0.0000E+00  0.6000E+01  0.6000E+01
     -8.632  0.0000E+00  0.0000E+00  0.6000E+01  0.6000E+01
     -8.500  0.0000E+00  0.0000E+00  0.6000E+01  0.6000E+01
     -8.367  0.0000E+00  0.0000E+00  0.6000E+01  0.6000E+01
     -8.234  0.0000E+00  0.0000E+00  0.6000E+01  0.6000E+01
     -8.101  0.0000E+00  0.0000E+00  0.6000E+01  0.6000E+01
     -7.969  0.0000E+00  0.0000E+00  0.6000E+01  0.6000E+01
     -7.836  0.0000E+00  0.0000E+00  0.6000E+01  0.6000E+01
     -7.703  0.0000E+00  0.0000E+00  0.6000E+01  0.6000E+01
     -7.570  0.0000E+00  0.0000E+00  0.6000E+01  0.6000E+01
     -7.438  0.0000E+00  0.0000E+00  0.6000E+01  0.6000E+01
     -7.305  0.0000E+00  0.0000E+00  0.6000E+01  0.6000E+01
     -7.172  0.0000E+00  0.0000E+00  0.6000E+01  0.6000E+01
     -7.039  0.0000E+00  0.0000E+00  0.6000E+01  0.6000E+01
     -6.907  0.0000E+00  0.0000E+00  0.6000E+01  0.6000E+01
     -6.774  0.0000E+00  0.0000E+00  0.6000E+01  0.6000E+01
     -6.641  0.0000E+00  0.0000E+00  0.6000E+01  0.6000E+01
     -6.509  0.0000E+00  0.0000E+00  0.6000E+01  0.6000E+01
     -6.376  0.0000E+00  0.0000E+00  0.6000E+01  0.6000E+01
     -6.243  0.0000E+00  0.0000E+00  0.6000E+01  0.6000E+01
     -6.110  0.0000E+00  0.0000E+00  0.6000E+01  0.6000E+01
     -5.978  0.0000E+00  0.0000E+00  0.6000E+01  0.6000E+01
     -5.845  0.0000E+00  0.0000E+00  0.6000E+01  0.6000E+01
     -5.712  0.0000E+00  0.0000E+00  0.6000E+01  0.6000E+01
     -5.579  0.0000E+00  0.0000E+00  0.6000E+01  0.6000E+01
     -5.447  0.0000E+00  0.0000E+00  0.6000E+01  0.6000E+01
     -5.314  0.0000E+00  0.0000E+00  0.6000E+01  0.6000E+01
     -5.181  0.0000E+00  0.0000E+00  0.6000E+01  0.6000E+01
     -5.049  0.0000E+00  0.0000E+00  0.6000E+01  0.6000E+01
     -4.916  0.0000E+00  0.0000E+00  0.6000E+01  0.6000E+01
     -4.783  0.0000E+00  0.0000E+00  0.6000E+01  0.6000E+01
     -4.650  0.0000E+00  0.0000E+00  0.6000E+01  0.6000E+01
     -4.518  0.0000E+00  0.0000E+00  0.6000E+01  0.6000E+01
     -4.385  0.0000E+00  0.0000E+00  0.6000E+01  0.6000E+01
     -4.252  0.0000E+00  0.0000E+00  0.6000E+01  0.6000E+01
     -4.119  0.0000E+00  0.0000E+00  0.6000E+01  0.6000E+01
     -3.987  0.0000E+00  0.0000E+00  0.6000E+01  0.6000E+01
     -3.854  0.0000E+00  0.0000E+00  0.6000E+01  0.6000E+01
     -3.721  0.0000E+00  0.0000E+00  0.6000E+01  0.6000E+01
     -3.588  0.0000E+00  0.0000E+00  0.6000E+01  0.6000E+01
     -3.456  0.0000E+00  0.0000E+00  0.6000E+01  0.6000E+01
     -3.323  0.0000E+00  0.0000E+00  0.6000E+01  0.6000E+01
     -3.190  0.0000E+00  0.0000E+00  0.6000E+01  0.6000E+01
     -3.058  0.0000E+00  0.0000E+00  0.6000E+01  0.6000E+01
     -2.925  0.0000E+00  0.0000E+00  0.6000E+01  0.6000E+01
     -2.792  0.0000E+00  0.0000E+00  0.6000E+01  0.6000E+01
     -2.659  0.0000E+00  0.0000E+00  0.6000E+01  0.6000E+01
     -2.527  0.2960E-06  0.3068E-06  0.6000E+01  0.6000E+01
     -2.394  0.1310E-04  0.1359E-04  0.6000E+01  0.6000E+01
     -2.261  0.1849E-03  0.1916E-03  0.6000E+01  0.6000E+01
     -2.128  0.2512E-02  0.2599E-02  0.6000E+01  0.6000E+01
     -1.996  0.2338E-01  0.2396E-01  0.6003E+01  0.6004E+01
     -1.863  0.8338E-01  0.8418E-01  0.6015E+01  0.6015E+01
     -1.730  0.1276E+00  0.1283E+00  0.6031E+01  0.6032E+01
     -1.597  0.1938E+00  0.1942E+00  0.6057E+01  0.6058E+01
     -1.465  0.1790E+00  0.1793E+00  0.6081E+01  0.6081E+01
     -1.332  0.2552E+00  0.2561E+00  0.6115E+01  0.6115E+01
     -1.199  0.2644E+00  0.2643E+00  0.6150E+01  0.6151E+01
     -1.067  0.2979E+00  0.2985E+00  0.6190E+01  0.6190E+01
     -0.934  0.2783E+00  0.2779E+00  0.6227E+01  0.6227E+01
     -0.801  0.3529E+00  0.3548E+00  0.6274E+01  0.6274E+01
     -0.668  0.4004E+00  0.3999E+00  0.6327E+01  0.6327E+01
     -0.536  0.3766E+00  0.3765E+00  0.6377E+01  0.6377E+01
     -0.403  0.3569E+00  0.3574E+00  0.6424E+01  0.6425E+01
     -0.270  0.4413E+00  0.4427E+00  0.6483E+01  0.6484E+01
     -0.137  0.5094E+00  0.5093E+00  0.6551E+01  0.6552E+01
     -0.005  0.4597E+00  0.4595E+00  0.6612E+01  0.6613E+01
      0.128  0.4838E+00  0.4848E+00  0.6676E+01  0.6677E+01
      0.261  0.5611E+00  0.5615E+00  0.6751E+01  0.6752E+01
      0.393  0.5046E+00  0.5031E+00  0.6818E+01  0.6819E+01
      0.526  0.5453E+00  0.5474E+00  0.6890E+01  0.6891E+01
      0.659  0.6831E+00  0.6846E+00  0.6981E+01  0.6982E+01
      0.792  0.6758E+00  0.6740E+00  0.7071E+01  0.7072E+01
      0.924  0.6044E+00  0.6048E+00  0.7151E+01  0.7152E+01
      1.057  0.6666E+00  0.6683E+00  0.7240E+01  0.7241E+01
      1.190  0.7608E+00  0.7607E+00  0.7341E+01  0.7342E+01
      1.323  0.7348E+00  0.7349E+00  0.7438E+01  0.7440E+01
      1.455  0.7965E+00  0.7980E+00  0.7544E+01  0.7546E+01
      1.588  0.7964E+00  0.7962E+00  0.7650E+01  0.7652E+01
      1.721  0.8835E+00  0.8863E+00  0.7767E+01  0.7769E+01
      1.854  0.9027E+00  0.9020E+00  0.7887E+01  0.7889E+01
      1.986  0.8899E+00  0.8919E+00  0.8006E+01  0.8008E+01
      2.119  0.1097E+01  0.1099E+01  0.8152E+01  0.8154E+01
      2.252  0.1149E+01  0.1148E+01  0.8304E+01  0.8307E+01
      2.384  0.1086E+01  0.1086E+01  0.8449E+01  0.8451E+01
      2.517  0.1031E+01  0.1026E+01  0.8586E+01  0.8587E+01
      2.650  0.8193E+00  0.8181E+00  0.8695E+01  0.8696E+01
      2.783  0.9115E+00  0.9127E+00  0.8816E+01  0.8818E+01
      2.915  0.8465E+00  0.8439E+00  0.8929E+01  0.8930E+01
      3.048  0.8656E+00  0.8670E+00  0.9044E+01  0.9045E+01
      3.181  0.8879E+00  0.8867E+00  0.9162E+01  0.9163E+01
      3.314  0.9052E+00  0.9071E+00  0.9282E+01  0.9284E+01
      3.446  0.1083E+01  0.1083E+01  0.9426E+01  0.9428E+01
      3.579  0.8688E+00  0.8651E+00  0.9542E+01  0.9543E+01
      3.712  0.8625E+00  0.8645E+00  0.9656E+01  0.9658E+01
      3.845  0.9682E+00  0.9704E+00  0.9785E+01  0.9787E+01
      3.977  0.1237E+01  0.1240E+01  0.9949E+01  0.9952E+01
      4.110  0.1453E+01  0.1455E+01  0.1014E+02  0.1015E+02
      4.243  0.1481E+01  0.1479E+01  0.1034E+02  0.1034E+02
      4.375  0.1272E+01  0.1271E+01  0.1051E+02  0.1051E+02
      4.508  0.1229E+01  0.1228E+01  0.1067E+02  0.1067E+02
      4.641  0.1206E+01  0.1206E+01  0.1083E+02  0.1083E+02
      4.774  0.1158E+01  0.1157E+01  0.1099E+02  0.1099E+02
      4.906  0.1180E+01  0.1183E+01  0.1114E+02  0.1115E+02
      5.039  0.1496E+01  0.1499E+01  0.1134E+02  0.1134E+02
      5.172  0.1422E+01  0.1417E+01  0.1153E+02  0.1153E+02
      5.305  0.1063E+01  0.1059E+01  0.1167E+02  0.1167E+02
      5.437  0.1036E+01  0.1038E+01  0.1181E+02  0.1181E+02
      5.570  0.1333E+01  0.1337E+01  0.1199E+02  0.1199E+02
      5.703  0.1534E+01  0.1535E+01  0.1219E+02  0.1219E+02
      5.835  0.1531E+01  0.1530E+01  0.1239E+02  0.1240E+02
      5.968  0.1374E+01  0.1373E+01  0.1258E+02  0.1258E+02
      6.101  0.1299E+01  0.1297E+01  0.1275E+02  0.1275E+02
      6.234  0.1282E+01  0.1282E+01  0.1292E+02  0.1292E+02
      6.366  0.1139E+01  0.1136E+01  0.1307E+02  0.1307E+02
      6.499  0.1189E+01  0.1192E+01  0.1323E+02  0.1323E+02
      6.632  0.1514E+01  0.1516E+01  0.1343E+02  0.1343E+02
      6.765  0.1802E+01  0.1803E+01  0.1367E+02  0.1367E+02
      6.897  0.2037E+01  0.2037E+01  0.1394E+02  0.1394E+02
      7.030  0.2015E+01  0.2012E+01  0.1421E+02  0.1421E+02
      7.163  0.1819E+01  0.1820E+01  0.1445E+02  0.1445E+02
      7.296  0.2256E+01  0.2261E+01  0.1475E+02  0.1475E+02
      7.428  0.2725E+01  0.2729E+01  0.1511E+02  0.1512E+02
      7.561  0.2605E+01  0.2600E+01  0.1546E+02  0.1546E+02
      7.694  0.2002E+01  0.1995E+01  0.1573E+02  0.1573E+02
      7.826  0.1952E+01  0.1950E+01  0.1599E+02  0.1599E+02
      7.959  0.1723E+01  0.1721E+01  0.1621E+02  0.1622E+02
      8.092  0.1902E+01  0.1902E+01  0.1647E+02  0.1647E+02
      8.225  0.2042E+01  0.2040E+01  0.1674E+02  0.1674E+02
      8.357  0.1836E+01  0.1835E+01  0.1698E+02  0.1698E+02
      8.490  0.1640E+01  0.1640E+01  0.1720E+02  0.1720E+02
      8.623  0.1566E+01  0.1564E+01  0.1741E+02  0.1741E+02
      8.756  0.1603E+01  0.1600E+01  0.1762E+02  0.1762E+02
      8.888  0.1961E+01  0.1963E+01  0.1788E+02  0.1788E+02
      9.021  0.2512E+01  0.2512E+01  0.1822E+02  0.1822E+02
      9.154  0.2753E+01  0.2754E+01  0.1858E+02  0.1858E+02
      9.286  0.2645E+01  0.2642E+01  0.1893E+02  0.1893E+02
      9.419  0.1936E+01  0.1932E+01  0.1919E+02  0.1919E+02
      9.552  0.1672E+01  0.1671E+01  0.1941E+02  0.1941E+02
      9.685  0.1219E+01  0.1220E+01  0.1958E+02  0.1958E+02
      9.817  0.8273E+00  0.8278E+00  0.1969E+02  0.1969E+02
      9.950  0.7709E+00  0.7707E+00  0.1979E+02  0.1979E+02
     10.083  0.7749E+00  0.7758E+00  0.1989E+02  0.1989E+02
     10.216  0.7290E+00  0.7285E+00  0.1999E+02  0.1999E+02
     10.348  0.7319E+00  0.7335E+00  0.2009E+02  0.2009E+02
     10.481  0.6258E+00  0.6291E+00  0.2017E+02  0.2017E+02
     10.614  0.7484E+00  0.7507E+00  0.2027E+02  0.2027E+02
     10.747  0.9304E+00  0.9323E+00  0.2039E+02  0.2039E+02
     10.879  0.1206E+01  0.1207E+01  0.2055E+02  0.2056E+02
     11.012  0.1188E+01  0.1189E+01  0.2071E+02  0.2071E+02
     11.145  0.1391E+01  0.1391E+01  0.2090E+02  0.2090E+02
     11.277  0.1544E+01  0.1544E+01  0.2110E+02  0.2110E+02
     11.410  0.1897E+01  0.1897E+01  0.2135E+02  0.2136E+02
     11.543  0.2117E+01  0.2118E+01  0.2164E+02  0.2164E+02
     11.676  0.2253E+01  0.2254E+01  0.2193E+02  0.2194E+02
     11.808  0.2555E+01  0.2555E+01  0.2227E+02  0.2228E+02
     11.941  0.2977E+01  0.2976E+01  0.2267E+02  0.2267E+02
     12.074  0.2950E+01  0.2945E+01  0.2306E+02  0.2306E+02
     12.207  0.2669E+01  0.2664E+01  0.2342E+02  0.2342E+02
     12.339  0.2120E+01  0.2120E+01  0.2370E+02  0.2370E+02
     12.472  0.2043E+01  0.2048E+01  0.2397E+02  0.2397E+02
     12.605  0.2015E+01  0.2017E+01  0.2424E+02  0.2424E+02
     12.738  0.2133E+01  0.2134E+01  0.2452E+02  0.2452E+02
     12.870  0.2501E+01  0.2502E+01  0.2485E+02  0.2486E+02
     13.003  0.2842E+01  0.2843E+01  0.2523E+02  0.2523E+02
     13.136  0.2477E+01  0.2479E+01  0.2556E+02  0.2556E+02
     13.268  0.1683E+01  0.1681E+01  0.2579E+02  0.2579E+02
     13.401  0.1346E+01  0.1345E+01  0.2596E+02  0.2597E+02
     13.534  0.1003E+01  0.1000E+01  0.2610E+02  0.2610E+02
     13.667  0.6751E+00  0.6778E+00  0.2619E+02  0.2619E+02
     13.799  0.1004E+01  0.1006E+01  0.2632E+02  0.2632E+02
     13.932  0.1612E+01  0.1611E+01  0.2654E+02  0.2654E+02
     14.065  0.1536E+01  0.1531E+01  0.2674E+02  0.2674E+02
     14.198  0.1287E+01  0.1277E+01  0.2691E+02  0.2691E+02
     14.330  0.1398E+01  0.1399E+01  0.2710E+02  0.2710E+02
     14.463  0.1450E+01  0.1434E+01  0.2729E+02  0.2729E+02
     14.596  0.1495E+01  0.1520E+01  0.2749E+02  0.2749E+02
     14.728  0.1195E+01  0.1202E+01  0.2765E+02  0.2765E+02
     14.861  0.6481E+00  0.6625E+00  0.2773E+02  0.2774E+02
     14.994  0.5475E+00  0.5555E+00  0.2781E+02  0.2781E+02
     15.127  0.5717E+00  0.5325E+00  0.2788E+02  0.2788E+02
     15.259  0.3532E+00  0.3365E+00  0.2793E+02  0.2793E+02
     15.392  0.2734E+00  0.2891E+00  0.2797E+02  0.2797E+02
     15.525  0.1353E+00  0.1420E+00  0.2798E+02  0.2798E+02
     15.658  0.5967E-01  0.6029E-01  0.2799E+02  0.2799E+02
     15.790  0.3306E-01  0.3266E-01  0.2800E+02  0.2800E+02
     15.923  0.1986E-01  0.1902E-01  0.2800E+02  0.2800E+02
     16.056  0.4065E-02  0.3339E-02  0.2800E+02  0.2800E+02
     16.189  0.3352E-03  0.2666E-03  0.2800E+02  0.2800E+02
     16.321  0.0000E+00  0.0000E+00  0.2800E+02  0.2800E+02
     16.454  0.0000E+00  0.0000E+00  0.2800E+02  0.2800E+02
     16.587  0.0000E+00  0.0000E+00  0.2800E+02  0.2800E+02
     16.719  0.0000E+00  0.0000E+00  0.2800E+02  0.2800E+02
     16.852  0.0000E+00  0.0000E+00  0.2800E+02  0.2800E+02
     16.985  0.0000E+00  0.0000E+00  0.2800E+02  0.2800E+02
     17.118  0.0000E+00  0.0000E+00  0.2800E+02  0.2800E+02
     17.250  0.0000E+00  0.0000E+00  0.2800E+02  0.2800E+02
     17.383  0.0000E+00  0.0000E+00  0.2800E+02  0.2800E+02
     17.516  0.0000E+00  0.0000E+00  0.2800E+02  0.2800E+02
     17.649  0.0000E+00  0.0000E+00  0.2800E+02  0.2800E+02
     17.64858006    -22.17088044  301      9.31602088      1.00000000
    -22.171  0.0000E+00  0.0000E+00  0.0000E+00  0.0000E+00  0.0000E+00  0.0000E+00  0.0000E+00  0.0000E+00  0.0000E+00  0.0000E+00  0.0000E+00  0.0000E+00  0.0000E+00  0.0000E+00  0.0000E+00  0.0000E+00  0.0000E+00  0.0000E+00
    -22.038  0.0000E+00  0.0000E+00  0.0000E+00  0.0000E+00  0.0000E+00  0.0000E+00  0.0000E+00  0.0000E+00  0.0000E+00  0.0000E+00  0.0000E+00  0.0000E+00  0.0000E+00  0.0000E+00  0.0000E+00  0.0000E+00  0.0000E+00  0.0000E+00
    -21.905  0.0000E+00  0.0000E+00  0.0000E+00  0.0000E+00  0.0000E+00  0.0000E+00  0.0000E+00  0.0000E+00  0.0000E+00  0.0000E+00  0.0000E+00  0.0000E+00  0.0000E+00  0.0000E+00  0.0000E+00  0.0000E+00  0.0000E+00  0.0000E+00
    -21.773  0.0000E+00  0.0000E+00  0.0000E+00  0.0000E+00  0.0000E+00  0.0000E+00  0.0000E+00  0.0000E+00  0.0000E+00  0.0000E+00  0.0000E+00  0.0000E+00  0.0000E+00  0.0000E+00  0.0000E+00  0.0000E+00  0.0000E+00  0.0000E+00
    -21.640  0.0000E+00  0.0000E+00  0.0000E+00  0.0000E+00  0.0000E+00  0.0000E+00  0.0000E+00  0.0000E+00  0.0000E+00  0.0000E+00  0.0000E+00  0.0000E+00  0.0000E+00  0.0000E+00  0.0000E+00  0.0000E+00  0.0000E+00  0.0000E+00
    -21.507  0.0000E+00  0.0000E+00  0.0000E+00  0.0000E+00  0.0000E+00  0.0000E+00  0.0000E+00  0.0000E+00  0.0000E+00  0.0000E+00  0.0000E+00  0.0000E+00  0.0000E+00  0.0000E+00  0.0000E+00  0.0000E+00  0.0000E+00  0.0000E+00
    -21.374  0.0000E+00  0.0000E+00  0.0000E+00  0.0000E+00  0.0000E+00  0.0000E+00  0.0000E+00  0.0000E+00  0.0000E+00  0.0000E+00  0.0000E+00  0.0000E+00  0.0000E+00  0.0000E+00  0.0000E+00  0.0000E+00  0.0000E+00  0.0000E+00
    -21.242  0.0000E+00  0.0000E+00  0.0000E+00  0.0000E+00  0.0000E+00  0.0000E+00  0.0000E+00  0.0000E+00  0.0000E+00  0.0000E+00  0.0000E+00  0.0000E+00  0.0000E+00  0.0000E+00  0.0000E+00  0.0000E+00  0.0000E+00  0.0000E+00
    -21.109  0.0000E+00  0.0000E+00  0.0000E+00  0.0000E+00  0.0000E+00  0.0000E+00  0.0000E+00  0.0000E+00  0.0000E+00  0.0000E+00  0.0000E+00  0.0000E+00  0.0000E+00  0.0000E+00  0.0000E+00  0.0000E+00  0.0000E+00  0.0000E+00
    -20.976  0.0000E+00  0.0000E+00  0.0000E+00  0.0000E+00  0.0000E+00  0.0000E+00  0.0000E+00  0.0000E+00  0.0000E+00  0.0000E+00  0.0000E+00  0.0000E+00  0.0000E+00  0.0000E+00  0.0000E+00  0.0000E+00  0.0000E+00  0.0000E+00
    -20.844  0.8426E-09  0.8735E-09  0.1377E-03  0.1429E-03  0.2905E-06  0.2962E-06  0.1377E-03  0.1429E-03  0.9343E-10  0.9648E-10  0.9044E-11  0.9357E-11  0.3228E-09  0.3347E-09  0.9044E-11  0.9357E-11  0.8584E-09  0.9042E-09
    -20.711  0.1739E-07  0.1795E-07  0.2436E-02  0.2516E-02  0.2473E-03  0.2507E-03  0.2436E-02  0.2516E-02  0.1456E-08  0.1503E-08  0.2227E-09  0.2285E-09  0.6707E-08  0.6927E-08  0.2227E-09  0.2285E-09  0.1880E-07  0.1939E-07
    -20.578  0.2396E-06  0.2474E-06  0.3377E-01  0.3488E-01  0.3270E-02  0.3316E-02  0.3377E-01  0.3488E-01  0.2032E-07  0.2098E-07  0.3048E-08  0.3127E-08  0.9240E-07  0.9542E-07  0.3048E-08  0.3127E-08  0.2584E-06  0.2668E-06
    -20.445  0.3150E-05  0.3245E-05  0.4358E+00  0.4487E+00  0.4610E-01  0.4673E-01  0.4358E+00  0.4487E+00  0.2597E-06  0.2672E-06  0.4056E-07  0.4152E-07  0.1215E-05  0.1252E-05  0.4056E-07  0.4152E-07  0.3410E-05  0.3512E-05
    -20.313  0.2211E-04  0.2243E-04  0.2787E+01  0.2825E+01  0.5912E+00  0.5985E+00  0.2787E+01  0.2825E+01  0.1528E-05  0.1545E-05  0.3516E-06  0.3560E-06  0.8560E-05  0.8685E-05  0.3516E-06  0.3560E-06  0.2455E-04  0.2491E-04
    -20.180  0.2673E-04  0.2644E-04  0.3366E+01  0.3334E+01  0.3561E+01  0.3578E+01  0.3366E+01  0.3334E+01  0.1525E-05  0.1508E-05  0.1321E-05  0.1325E-05  0.1045E-04  0.1034E-04  0.1321E-05  0.1325E-05  0.3080E-04  0.3047E-04
    -20.047  0.5036E-05  0.4899E-05  0.6966E+00  0.6775E+00  0.2802E+01  0.2782E+01  0.6966E+00  0.6775E+00  0.3117E-06  0.3044E-06  0.8893E-06  0.8827E-06  0.2027E-05  0.1972E-05  0.8893E-06  0.8827E-06  0.5731E-05  0.5566E-05
    -19.914  0.3425E-06  0.3262E-06  0.4909E-01  0.4696E-01  0.3491E+00  0.3446E+00  0.4909E-01  0.4696E-01  0.2178E-07  0.2091E-07  0.1055E-06  0.1041E-06  0.1426E-06  0.1354E-06  0.1055E-06  0.1041E-06  0.3934E-06  0.3716E-06
    -19.782  0.0000E+00  0.0000E+00  0.0000E+00  0.0000E+00  0.0000E+00  0.0000E+00  0.0000E+00  0.0000E+00  0.0000E+00  0.0000E+00  0.0000E+00  0.0000E+00  0.0000E+00  0.0000E+00  0.0000E+00  0.0000E+00  0.0000E+00  0.0000E+00
    -19.649  0.0000E+00  0.0000E+00  0.0000E+00  0.0000E+00  0.0000E+00  0.0000E+00  0.0000E+00  0.0000E+00  0.0000E+00  0.0000E+00  0.0000E+00  0.0000E+00  0.0000E+00  0.0000E+00  0.0000E+00  0.0000E+00  0.0000E+00  0.0000E+00
    -19.516  0.0000E+00  0.0000E+00  0.0000E+00  0.0000E+00  0.0000E+00  0.0000E+00  0.0000E+00  0.0000E+00  0.0000E+00  0.0000E+00  0.0000E+00  0.0000E+00  0.0000E+00  0.0000E+00  0.0000E+00  0.0000E+00  0.0000E+00  0.0000E+00
    -19.384  0.0000E+00  0.0000E+00  0.0000E+00  0.0000E+00  0.0000E+00  0.0000E+00  0.0000E+00  0.0000E+00  0.0000E+00  0.0000E+00  0.0000E+00  0.0000E+00  0.0000E+00  0.0000E+00  0.0000E+00  0.0000E+00  0.0000E+00  0.0000E+00
    -19.251  0.0000E+00  0.0000E+00  0.0000E+00  0.0000E+00  0.0000E+00  0.0000E+00  0.0000E+00  0.0000E+00  0.0000E+00  0.0000E+00  0.0000E+00  0.0000E+00  0.0000E+00  0.0000E+00  0.0000E+00  0.0000E+00  0.0000E+00  0.0000E+00
    -19.118  0.0000E+00  0.0000E+00  0.0000E+00  0.0000E+00  0.0000E+00  0.0000E+00  0.0000E+00  0.0000E+00  0.0000E+00  0.0000E+00  0.0000E+00  0.0000E+00  0.0000E+00  0.0000E+00  0.0000E+00  0.0000E+00  0.0000E+00  0.0000E+00
    -18.985  0.0000E+00  0.0000E+00  0.0000E+00  0.0000E+00  0.0000E+00  0.0000E+00  0.0000E+00  0.0000E+00  0.0000E+00  0.0000E+00  0.0000E+00  0.0000E+00  0.0000E+00  0.0000E+00  0.0000E+00  0.0000E+00  0.0000E+00  0.0000E+00
    -18.853  0.0000E+00  0.0000E+00  0.0000E+00  0.0000E+00  0.0000E+00  0.0000E+00  0.0000E+00  0.0000E+00  0.0000E+00  0.0000E+00  0.0000E+00  0.0000E+00  0.0000E+00  0.0000E+00  0.0000E+00  0.0000E+00  0.0000E+00  0.0000E+00
    -18.720  0.0000E+00  0.0000E+00  0.0000E+00  0.0000E+00  0.0000E+00  0.0000E+00  0.0000E+00  0.0000E+00  0.0000E+00  0.0000E+00  0.0000E+00  0.0000E+00  0.0000E+00  0.0000E+00  0.0000E+00  0.0000E+00  0.0000E+00  0.0000E+00
    -18.587  0.0000E+00  0.0000E+00  0.0000E+00  0.0000E+00  0.0000E+00  0.0000E+00  0.0000E+00  0.0000E+00  0.0000E+00  0.0000E+00  0.0000E+00  0.0000E+00  0.0000E+00  0.0000E+00  0.0000E+00  0.0000E+00  0.0000E+00  0.0000E+00
    -18.454  0.0000E+00  0.0000E+00  0.0000E+00  0.0000E+00  0.0000E+00  0.0000E+00  0.0000E+00  0.0000E+00  0.0000E+00  0.0000E+00  0.0000E+00  0.0000E+00  0.0000E+00  0.0000E+00  0.0000E+00  0.0000E+00  0.0000E+00  0.0000E+00
    -18.322  0.0000E+00  0.0000E+00  0.0000E+00  0.0000E+00  0.0000E+00  0.0000E+00  0.0000E+00  0.0000E+00  0.0000E+00  0.0000E+00  0.0000E+00  0.0000E+00  0.0000E+00  0.0000E+00  0.0000E+00  0.0000E+00  0.0000E+00  0.0000E+00
    -18.189  0.0000E+00  0.0000E+00  0.0000E+00  0.0000E+00  0.0000E+00  0.0000E+00  0.0000E+00  0.0000E+00  0.0000E+00  0.0000E+00  0.0000E+00  0.0000E+00  0.0000E+00  0.0000E+00  0.0000E+00  0.0000E+00  0.0000E+00  0.0000E+00
    -18.056  0.0000E+00  0.0000E+00  0.0000E+00  0.0000E+00  0.0000E+00  0.0000E+00  0.0000E+00  0.0000E+00  0.0000E+00  0.0000E+00  0.0000E+00  0.0000E+00  0.0000E+00  0.0000E+00  0.0000E+00  0.0000E+00  0.0000E+00  0.0000E+00
    -17.923  0.0000E+00  0.0000E+00  0.0000E+00  0.0000E+00  0.0000E+00  0.0000E+00  0.0000E+00  0.0000E+00  0.0000E+00  0.0000E+00  0.0000E+00  0.0000E+00  0.0000E+00  0.0000E+00  0.0000E+00  0.0000E+00  0.0000E+00  0.0000E+00
    -17.791  0.0000E+00  0.0000E+00  0.0000E+00  0.0000E+00  0.0000E+00  0.0000E+00  0.0000E+00  0.0000E+00  0.0000E+00  0.0000E+00  0.0000E+00  0.0000E+00  0.0000E+00  0.0000E+00  0.0000E+00  0.0000E+00  0.0000E+00  0.0000E+00
    -17.658  0.0000E+00  0.0000E+00  0.0000E+00  0.0000E+00  0.0000E+00  0.0000E+00  0.0000E+00  0.0000E+00  0.0000E+00  0.0000E+00  0.0000E+00  0.0000E+00  0.0000E+00  0.0000E+00  0.0000E+00  0.0000E+00  0.0000E+00  0.0000E+00
    -17.525  0.0000E+00  0.0000E+00  0.0000E+00  0.0000E+00  0.0000E+00  0.0000E+00  0.0000E+00  0.0000E+00  0.0000E+00  0.0000E+00  0.0000E+00  0.0000E+00  0.0000E+00  0.0000E+00  0.0000E+00  0.0000E+00  0.0000E+00  0.0000E+00
    -17.393  0.0000E+00  0.0000E+00  0.0000E+00  0.0000E+00  0.0000E+00  0.0000E+00  0.0000E+00  0.0000E+00  0.0000E+00  0.0000E+00  0.0000E+00  0.0000E+00  0.0000E+00  0.0000E+00  0.0000E+00  0.0000E+00  0.0000E+00  0.0000E+00
    -17.260  0.0000E+00  0.0000E+00  0.0000E+00  0.0000E+00  0.0000E+00  0.0000E+00  0.0000E+00  0.0000E+00  0.0000E+00  0.0000E+00  0.0000E+00  0.0000E+00  0.0000E+00  0.0000E+00  0.0000E+00  0.0000E+00  0.0000E+00  0.0000E+00
    -17.127  0.0000E+00  0.0000E+00  0.0000E+00  0.0000E+00  0.0000E+00  0.0000E+00  0.0000E+00  0.0000E+00  0.0000E+00  0.0000E+00  0.0000E+00  0.0000E+00  0.0000E+00  0.0000E+00  0.0000E+00  0.0000E+00  0.0000E+00  0.0000E+00
    -16.994  0.0000E+00  0.0000E+00  0.0000E+00  0.0000E+00  0.0000E+00  0.0000E+00  0.0000E+00  0.0000E+00  0.0000E+00  0.0000E+00  0.0000E+00  0.0000E+00  0.0000E+00  0.0000E+00  0.0000E+00  0.0000E+00  0.0000E+00  0.0000E+00
    -16.862  0.0000E+00  0.0000E+00  0.0000E+00  0.0000E+00  0.0000E+00  0.0000E+00  0.0000E+00  0.0000E+00  0.0000E+00  0.0000E+00  0.0000E+00  0.0000E+00  0.0000E+00  0.0000E+00  0.0000E+00  0.0000E+00  0.0000E+00  0.0000E+00
    -16.729  0.0000E+00  0.0000E+00  0.0000E+00  0.0000E+00  0.0000E+00  0.0000E+00  0.0000E+00  0.0000E+00  0.0000E+00  0.0000E+00  0.0000E+00  0.0000E+00  0.0000E+00  0.0000E+00  0.0000E+00  0.0000E+00  0.0000E+00  0.0000E+00
    -16.596  0.0000E+00  0.0000E+00  0.0000E+00  0.0000E+00  0.0000E+00  0.0000E+00  0.0000E+00  0.0000E+00  0.0000E+00  0.0000E+00  0.0000E+00  0.0000E+00  0.0000E+00  0.0000E+00  0.0000E+00  0.0000E+00  0.0000E+00  0.0000E+00
    -16.463  0.0000E+00  0.0000E+00  0.0000E+00  0.0000E+00  0.0000E+00  0.0000E+00  0.0000E+00  0.0000E+00  0.0000E+00  0.0000E+00  0.0000E+00  0.0000E+00  0.0000E+00  0.0000E+00  0.0000E+00  0.0000E+00  0.0000E+00  0.0000E+00
    -16.331  0.0000E+00  0.0000E+00  0.0000E+00  0.0000E+00  0.0000E+00  0.0000E+00  0.0000E+00  0.0000E+00  0.0000E+00  0.0000E+00  0.0000E+00  0.0000E+00  0.0000E+00  0.0000E+00  0.0000E+00  0.0000E+00  0.0000E+00  0.0000E+00
    -16.198  0.0000E+00  0.0000E+00  0.0000E+00  0.0000E+00  0.0000E+00  0.0000E+00  0.0000E+00  0.0000E+00  0.0000E+00  0.0000E+00  0.0000E+00  0.0000E+00  0.0000E+00  0.0000E+00  0.0000E+00  0.0000E+00  0.0000E+00  0.0000E+00
    -16.065  0.0000E+00  0.0000E+00  0.0000E+00  0.0000E+00  0.0000E+00  0.0000E+00  0.0000E+00  0.0000E+00  0.0000E+00  0.0000E+00  0.0000E+00  0.0000E+00  0.0000E+00  0.0000E+00  0.0000E+00  0.0000E+00  0.0000E+00  0.0000E+00
    -15.932  0.0000E+00  0.0000E+00  0.0000E+00  0.0000E+00  0.0000E+00  0.0000E+00  0.0000E+00  0.0000E+00  0.0000E+00  0.0000E+00  0.0000E+00  0.0000E+00  0.0000E+00  0.0000E+00  0.0000E+00  0.0000E+00  0.0000E+00  0.0000E+00
    -15.800  0.0000E+00  0.0000E+00  0.0000E+00  0.0000E+00  0.0000E+00  0.0000E+00  0.0000E+00  0.0000E+00  0.0000E+00  0.0000E+00  0.0000E+00  0.0000E+00  0.0000E+00  0.0000E+00  0.0000E+00  0.0000E+00  0.0000E+00  0.0000E+00
    -15.667  0.0000E+00  0.0000E+00  0.0000E+00  0.0000E+00  0.0000E+00  0.0000E+00  0.0000E+00  0.0000E+00  0.0000E+00  0.0000E+00  0.0000E+00  0.0000E+00  0.0000E+00  0.0000E+00  0.0000E+00  0.0000E+00  0.0000E+00  0.0000E+00
    -15.534  0.0000E+00  0.0000E+00  0.0000E+00  0.0000E+00  0.0000E+00  0.0000E+00  0.0000E+00  0.0000E+00  0.0000E+00  0.0000E+00  0.0000E+00  0.0000E+00  0.0000E+00  0.0000E+00  0.0000E+00  0.0000E+00  0.0000E+00  0.0000E+00