   8   8   1   0
  0.1744728E+02  0.4117142E-09  0.4117142E-09  0.8234285E-09  0.5000000E-15
  1.000000000000000E-004
  CAR 
 unknown system                          
     13.98494578    -25.25389908  301      6.91624200      1.00000000
    -25.254  0.0000E+00  0.0000E+00  0.0000E+00  0.0000E+00
    -25.123  0.0000E+00  0.0000E+00  0.0000E+00  0.0000E+00
    -24.992  0.0000E+00  0.0000E+00  0.0000E+00  0.0000E+00
    -24.862  0.0000E+00  0.0000E+00  0.0000E+00  0.0000E+00
    -24.731  0.0000E+00  0.0000E+00  0.0000E+00  0.0000E+00
    -24.600  0.0000E+00  0.0000E+00  0.0000E+00  0.0000E+00
    -24.469  0.0000E+00  0.0000E+00  0.0000E+00  0.0000E+00
    -24.338  0.0000E+00  0.0000E+00  0.0000E+00  0.0000E+00
    -24.208  0.0000E+00  0.0000E+00  0.0000E+00  0.0000E+00
    -24.077  0.0000E+00  0.0000E+00  0.0000E+00  0.0000E+00
    -23.946  0.1603E-02  0.1588E-02  0.2097E-03  0.2077E-03
    -23.815  0.2117E-01  0.2097E-01  0.2978E-02  0.2950E-02
    -23.684  0.2859E+00  0.2832E+00  0.4037E-01  0.3999E-01
    -23.554  0.3447E+01  0.3419E+01  0.4912E+00  0.4872E+00
    -23.423  0.1770E+02  0.1765E+02  0.2807E+01  0.2796E+01
    -23.292  0.1802E+02  0.1805E+02  0.5163E+01  0.5157E+01
    -23.161  0.5755E+01  0.5795E+01  0.5916E+01  0.5915E+01
    -23.030  0.5083E+00  0.5134E+00  0.5995E+01  0.5995E+01
    -22.900  0.0000E+00  0.0000E+00  0.6000E+01  0.6000E+01
    -22.769  0.0000E+00  0.0000E+00  0.6000E+01  0.6000E+01
    -22.638  0.0000E+00  0.0000E+00  0.6000E+01  0.6000E+01
    -22.507  0.0000E+00  0.0000E+00  0.6000E+01  0.6000E+01
    -22.376  0.0000E+00  0.0000E+00  0.6000E+01  0.6000E+01
    -22.246  0.0000E+00  0.0000E+00  0.6000E+01  0.6000E+01
    -22.115  0.0000E+00  0.0000E+00  0.6000E+01  0.6000E+01
    -21.984  0.0000E+00  0.0000E+00  0.6000E+01  0.6000E+01
    -21.853  0.0000E+00  0.0000E+00  0.6000E+01  0.6000E+01
    -21.722  0.0000E+00  0.0000E+00  0.6000E+01  0.6000E+01
    -21.592  0.0000E+00  0.0000E+00  0.6000E+01  0.6000E+01
    -21.461  0.0000E+00  0.0000E+00  0.6000E+01  0.6000E+01
    -21.330  0.0000E+00  0.0000E+00  0.6000E+01  0.6000E+01
    -21.199  0.0000E+00  0.0000E+00  0.6000E+01  0.6000E+01
    -21.068  0.0000E+00  0.0000E+00  0.6000E+01  0.6000E+01
    -20.938  0.0000E+00  0.0000E+00  0.6000E+01  0.6000E+01
    -20.807  0.0000E+00  0.0000E+00  0.6000E+01  0.6000E+01
    -20.676  0.0000E+00  0.0000E+00  0.6000E+01  0.6000E+01
    -20.545  0.0000E+00  0.0000E+00  0.6000E+01  0.6000E+01
    -20.414  0.0000E+00  0.0000E+00  0.6000E+01  0.6000E+01
    -20.284  0.0000E+00  0.0000E+00  0.6000E+01  0.6000E+01
    -20.153  0.0000E+00  0.0000E+00  0.6000E+01  0.6000E+01
    -20.022  0.0000E+00  0.0000E+00  0.6000E+01  0.6000E+01
    -19.891  0.0000E+00  0.0000E+00  0.6000E+01  0.6000E+01
    -19.760  0.0000E+00  0.0000E+00  0.6000E+01  0.6000E+01
    -19.630  0.0000E+00  0.0000E+00  0.6000E+01  0.6000E+01
    -19.499  0.0000E+00  0.0000E+00  0.6000E+01  0.6000E+01
    -19.368  0.0000E+00  0.0000E+00  0.6000E+01  0.6000E+01
    -19.237  0.0000E+00  0.0000E+00  0.6000E+01  0.6000E+01
    -19.106  0.0000E+00  0.0000E+00  0.6000E+01  0.6000E+01
    -18.976  0.0000E+00  0.0000E+00  0.6000E+01  0.6000E+01
    -18.845  0.0000E+00  0.0000E+00  0.6000E+01  0.6000E+01
    -18.714  0.0000E+00  0.0000E+00  0.6000E+01  0.6000E+01
    -18.583  0.0000E+00  0.0000E+00  0.6000E+01  0.6000E+01
    -18.452  0.0000E+00  0.0000E+00  0.6000E+01  0.6000E+01
    -18.322  0.0000E+00  0.0000E+00  0.6000E+01  0.6000E+01
    -18.191  0.0000E+00  0.0000E+00  0.6000E+01  0.6000E+01
    -18.060  0.0000E+00  0.0000E+00  0.6000E+01  0.6000E+01
    -17.929  0.0000E+00  0.0000E+00  0.6000E+01  0.6000E+01
    -17.799  0.0000E+00  0.0000E+00  0.6000E+01  0.6000E+01
    -17.668  0.0000E+00  0.0000E+00  0.6000E+01  0.6000E+01
    -17.537  0.0000E+00  0.0000E+00  0.6000E+01  0.6000E+01
    -17.406  0.0000E+00  0.0000E+00  0.6000E+01  0.6000E+01
    -17.275  0.0000E+00  0.0000E+00  0.6000E+01  0.6000E+01
    -17.145  0.0000E+00  0.0000E+00  0.6000E+01  0.6000E+01
    -17.014  0.0000E+00  0.0000E+00  0.6000E+01  0.6000E+01
    -16.883  0.0000E+00  0.0000E+00  0.6000E+01  0.6000E+01
    -16.752  0.0000E+00  0.0000E+00  0.6000E+01  0.6000E+01
    -16.621  0.0000E+00  0.0000E+00  0.6000E+01  0.6000E+01
    -16.491  0.0000E+00  0.0000E+00  0.6000E+01  0.6000E+01
    -16.360  0.0000E+00  0.0000E+00  0.6000E+01  0.6000E+01
    -16.229  0.0000E+00  0.0000E+00  0.6000E+01  0.6000E+01
    -16.098  0.0000E+00  0.0000E+00  0.6000E+01  0.6000E+01
    -15.967  0.0000E+00  0.0000E+00  0.6000E+01  0.6000E+01
    -15.837  0.0000E+00  0.0000E+00  0.6000E+01  0.6000E+01
    -15.706  0.0000E+00  0.0000E+00  0.6000E+01  0.6000E+01
    -15.575  0.0000E+00  0.0000E+00  0.6000E+01  0.6000E+01
    -15.444  0.0000E+00  0.0000E+00  0.6000E+01  0.6000E+01
    -15.313  0.0000E+00  0.0000E+00  0.6000E+01  0.6000E+01
    -15.183  0.0000E+00  0.0000E+00  0.6000E+01  0.6000E+01
    -15.052  0.0000E+00  0.0000E+00  0.6000E+01  0.6000E+01
    -14.921  0.0000E+00  0.0000E+00  0.6000E+01  0.6000E+01
    -14.790  0.0000E+00  0.0000E+00  0.6000E+01  0.6000E+01
    -14.659  0.0000E+00  0.0000E+00  0.6000E+01  0.6000E+01
    -14.529  0.0000E+00  0.0000E+00  0.6000E+01  0.6000E+01
    -14.398  0.0000E+00  0.0000E+00  0.6000E+01  0.6000E+01
    -14.267  0.0000E+00  0.0000E+00  0.6000E+01  0.6000E+01
    -14.136  0.0000E+00  0.0000E+00  0.6000E+01  0.6000E+01
    -14.005  0.0000E+00  0.0000E+00  0.6000E+01  0.6000E+01
    -13.875  0.0000E+00  0.0000E+00  0.6000E+01  0.6000E+01
    -13.744  0.0000E+00  0.0000E+00  0.6000E+01  0.6000E+01
    -13.613  0.0000E+00  0.0000E+00  0.6000E+01  0.6000E+01
    -13.482  0.0000E+00  0.0000E+00  0.6000E+01  0.6000E+01
    -13.351  0.0000E+00  0.0000E+00  0.6000E+01  0.6000E+01
    -13.221  0.0000E+00  0.0000E+00  0.6000E+01  0.6000E+01
    -13.090  0.0000E+00  0.0000E+00  0.6000E+01  0.6000E+01
    -12.959  0.0000E+00  0.0000E+00  0.6000E+01  0.6000E+01
    -12.828  0.0000E+00  0.0000E+00  0.6000E+01  0.6000E+01
    -12.697  0.0000E+00  0.0000E+00  0.6000E+01  0.6000E+01
    -12.567  0.0000E+00  0.0000E+00  0.6000E+01  0.6000E+01
    -12.436  0.0000E+00  0.0000E+00  0.6000E+01  0.6000E+01
    -12.305  0.0000E+00  0.0000E+00  0.6000E+01  0.6000E+01
    -12.174  0.0000E+00  0.0000E+00  0.6000E+01  0.6000E+01
    -12.043  0.0000E+00  0.0000E+00  0.6000E+01  0.6000E+01
    -11.913  0.0000E+00  0.0000E+00  0.6000E+01  0.6000E+01
    -11.782  0.0000E+00  0.0000E+00  0.6000E+01  0.6000E+01
    -11.651  0.0000E+00  0.0000E+00  0.6000E+01  0.6000E+01
    -11.520  0.0000E+00  0.0000E+00  0.6000E+01  0.6000E+01
    -11.390  0.0000E+00  0.0000E+00  0.6000E+01  0.6000E+01
    -11.259  0.0000E+00  0.0000E+00  0.6000E+01  0.6000E+01
    -11.128  0.0000E+00  0.0000E+00  0.6000E+01  0.6000E+01
    -10.997  0.0000E+00  0.0000E+00  0.6000E+01  0.6000E+01
    -10.866  0.0000E+00  0.0000E+00  0.6000E+01  0.6000E+01
    -10.736  0.0000E+00  0.0000E+00  0.6000E+01  0.6000E+01
    -10.605  0.0000E+00  0.0000E+00  0.6000E+01  0.6000E+01
    -10.474  0.0000E+00  0.0000E+00  0.6000E+01  0.6000E+01
    -10.343  0.0000E+00  0.0000E+00  0.6000E+01  0.6000E+01
    -10.212  0.0000E+00  0.0000E+00  0.6000E+01  0.6000E+01
    -10.082  0.0000E+00  0.0000E+00  0.6000E+01  0.6000E+01
     -9.951  0.0000E+00  0.0000E+00  0.6000E+01  0.6000E+01
     -9.820  0.0000E+00  0.0000E+00  0.6000E+01  0.6000E+01
     -9.689  0.0000E+00  0.0000E+00  0.6000E+01  0.6000E+01
     -9.558  0.0000E+00  0.0000E+00  0.6000E+01  0.6000E+01
     -9.428  0.0000E+00  0.0000E+00  0.6000E+01  0.6000E+01
     -9.297  0.0000E+00  0.0000E+00  0.6000E+01  0.6000E+01
     -9.166  0.0000E+00  0.0000E+00  0.6000E+01  0.6000E+01
     -9.035  0.0000E+00  0.0000E+00  0.6000E+01  0.6000E+01
     -8.904  0.0000E+00  0.0000E+00  0.6000E+01  0.6000E+01
     -8.774  0.0000E+00  0.0000E+00  0.6000E+01  0.6000E+01
     -8.643  0.0000E+00  0.0000E+00  0.6000E+01  0.6000E+01
     -8.512  0.0000E+00  0.0000E+00  0.6000E+01  0.6000E+01
     -8.381  0.0000E+00  0.0000E+00  0.6000E+01  0.6000E+01
     -8.250  0.0000E+00  0.0000E+00  0.6000E+01  0.6000E+01
     -8.120  0.0000E+00  0.0000E+00  0.6000E+01  0.6000E+01
     -7.989  0.0000E+00  0.0000E+00  0.6000E+01  0.6000E+01
     -7.858  0.0000E+00  0.0000E+00  0.6000E+01  0.6000E+01
     -7.727  0.0000E+00  0.0000E+00  0.6000E+01  0.6000E+01
     -7.596  0.0000E+00  0.0000E+00  0.6000E+01  0.6000E+01
     -7.466  0.0000E+00  0.0000E+00  0.6000E+01  0.6000E+01
     -7.335  0.0000E+00  0.0000E+00  0.6000E+01  0.6000E+01
     -7.204  0.0000E+00  0.0000E+00  0.6000E+01  0.6000E+01
     -7.073  0.0000E+00  0.0000E+00  0.6000E+01  0.6000E+01
     -6.942  0.0000E+00  0.0000E+00  0.6000E+01  0.6000E+01
     -6.812  0.0000E+00  0.0000E+00  0.6000E+01  0.6000E+01
     -6.681  0.0000E+00  0.0000E+00  0.6000E+01  0.6000E+01
     -6.550  0.0000E+00  0.0000E+00  0.6000E+01  0.6000E+01
     -6.419  0.0000E+00  0.0000E+00  0.6000E+01  0.6000E+01
     -6.288  0.0000E+00  0.0000E+00  0.6000E+01  0.6000E+01
     -6.158  0.0000E+00  0.0000E+00  0.6000E+01  0.6000E+01
     -6.027  0.0000E+00  0.0000E+00  0.6000E+01  0.6000E+01
     -5.896  0.0000E+00  0.0000E+00  0.6000E+01  0.6000E+01
     -5.765  0.0000E+00  0.0000E+00  0.6000E+01  0.6000E+01
     -5.634  0.0000E+00  0.0000E+00  0.6000E+01  0.6000E+01
     -5.504  0.0000E+00  0.0000E+00  0.6000E+01  0.6000E+01
     -5.373  0.0000E+00  0.0000E+00  0.6000E+01  0.6000E+01
     -5.242  0.0000E+00  0.0000E+00  0.6000E+01  0.6000E+01
     -5.111  0.0000E+00  0.0000E+00  0.6000E+01  0.6000E+01
     -4.980  0.0000E+00  0.0000E+00  0.6000E+01  0.6000E+01
     -4.850  0.0000E+00  0.0000E+00  0.6000E+01  0.6000E+01
     -4.719  0.0000E+00  0.0000E+00  0.6000E+01  0.6000E+01
     -4.588  0.0000E+00  0.0000E+00  0.6000E+01  0.6000E+01
     -4.457  0.0000E+00  0.0000E+00  0.6000E+01  0.6000E+01
     -4.327  0.0000E+00  0.0000E+00  0.6000E+01  0.6000E+01
     -4.196  0.0000E+00  0.0000E+00  0.6000E+01  0.6000E+01
     -4.065  0.0000E+00  0.0000E+00  0.6000E+01  0.6000E+01
     -3.934  0.0000E+00  0.0000E+00  0.6000E+01  0.6000E+01
     -3.803  0.0000E+00  0.0000E+00  0.6000E+01  0.6000E+01
     -3.673  0.0000E+00  0.0000E+00  0.6000E+01  0.6000E+01
     -3.542  0.3228E-06  0.3238E-06  0.6000E+01  0.6000E+01
     -3.411  0.1838E-04  0.1844E-04  0.6000E+01  0.6000E+01
     -3.280  0.2630E-03  0.2639E-03  0.6000E+01  0.6000E+01
     -3.149  0.3437E-02  0.3448E-02  0.6000E+01  0.6000E+01
     -3.019  0.3184E-01  0.3191E-01  0.6005E+01  0.6005E+01
     -2.888  0.1111E+00  0.1111E+00  0.6019E+01  0.6019E+01
     -2.757  0.1905E+00  0.1906E+00  0.6044E+01  0.6044E+01
     -2.626  0.2342E+00  0.2342E+00  0.6075E+01  0.6075E+01
     -2.495  0.2922E+00  0.2923E+00  0.6113E+01  0.6113E+01
     -2.365  0.3313E+00  0.3313E+00  0.6156E+01  0.6156E+01
     -2.234  0.3632E+00  0.3632E+00  0.6204E+01  0.6204E+01
     -2.103  0.3728E+00  0.3729E+00  0.6253E+01  0.6253E+01
     -1.972  0.4752E+00  0.4753E+00  0.6315E+01  0.6315E+01
     -1.841  0.4578E+00  0.4578E+00  0.6375E+01  0.6375E+01
     -1.711  0.4518E+00  0.4519E+00  0.6434E+01  0.6434E+01
     -1.580  0.5531E+00  0.5532E+00  0.6506E+01  0.6507E+01
     -1.449  0.5786E+00  0.5785E+00  0.6582E+01  0.6582E+01
     -1.318  0.5655E+00  0.5655E+00  0.6656E+01  0.6656E+01
     -1.187  0.6360E+00  0.6361E+00  0.6740E+01  0.6740E+01
     -1.057  0.6154E+00  0.6154E+00  0.6820E+01  0.6820E+01
     -0.926  0.6610E+00  0.6612E+00  0.6907E+01  0.6907E+01
     -0.795  0.7999E+00  0.7999E+00  0.7012E+01  0.7012E+01
     -0.664  0.7328E+00  0.7326E+00  0.7108E+01  0.7108E+01
     -0.533  0.7270E+00  0.7271E+00  0.7203E+01  0.7203E+01
     -0.403  0.8191E+00  0.8192E+00  0.7310E+01  0.7310E+01
     -0.272  0.8465E+00  0.8465E+00  0.7421E+01  0.7421E+01
     -0.141  0.9081E+00  0.9082E+00  0.7540E+01  0.7540E+01
     -0.010  0.9415E+00  0.9415E+00  0.7663E+01  0.7663E+01
      0.121  0.9571E+00  0.9571E+00  0.7789E+01  0.7789E+01
      0.251  0.9602E+00  0.9603E+00  0.7914E+01  0.7915E+01
      0.382  0.1025E+01  0.1025E+01  0.8049E+01  0.8049E+01
      0.513  0.1098E+01  0.1098E+01  0.8192E+01  0.8193E+01
      0.644  0.1164E+01  0.1164E+01  0.8345E+01  0.8345E+01
      0.775  0.1203E+01  0.1203E+01  0.8502E+01  0.8503E+01
      0.905  0.1043E+01  0.1043E+01  0.8639E+01  0.8639E+01
      1.036  0.9376E+00  0.9377E+00  0.8762E+01  0.8762E+01
      1.167  0.9320E+00  0.9319E+00  0.8884E+01  0.8884E+01
      1.298  0.9236E+00  0.9238E+00  0.9005E+01  0.9005E+01
      1.429  0.1072E+01  0.1072E+01  0.9145E+01  0.9146E+01
      1.559  0.1039E+01  0.1039E+01  0.9282E+01  0.9282E+01
      1.690  0.1218E+01  0.1218E+01  0.9441E+01  0.9441E+01
      1.821  0.1302E+01  0.1302E+01  0.9612E+01  0.9612E+01
      1.952  0.1395E+01  0.1395E+01  0.9794E+01  0.9794E+01
      2.082  0.1210E+01  0.1209E+01  0.9953E+01  0.9953E+01
      2.213  0.1384E+01  0.1384E+01  0.1013E+02  0.1013E+02
      2.344  0.1505E+01  0.1505E+01  0.1033E+02  0.1033E+02
      2.475  0.1377E+01  0.1377E+01  0.1051E+02  0.1051E+02
      2.606  0.1287E+01  0.1287E+01  0.1068E+02  0.1068E+02
      2.736  0.1136E+01  0.1136E+01  0.1083E+02  0.1083E+02
      2.867  0.9566E+00  0.9567E+00  0.1095E+02  0.1095E+02
      2.998  0.1292E+01  0.1292E+01  0.1112E+02  0.1112E+02
      3.129  0.1753E+01  0.1753E+01  0.1135E+02  0.1135E+02
      3.260  0.1327E+01  0.1327E+01  0.1153E+02  0.1153E+02
      3.390  0.1131E+01  0.1131E+01  0.1168E+02  0.1168E+02
      3.521  0.1251E+01  0.1252E+01  0.1184E+02  0.1184E+02
      3.652  0.1456E+01  0.1456E+01  0.1203E+02  0.1203E+02
      3.783  0.1538E+01  0.1538E+01  0.1223E+02  0.1223E+02
      3.914  0.1786E+01  0.1787E+01  0.1247E+02  0.1247E+02
      4.044  0.1635E+01  0.1634E+01  0.1268E+02  0.1268E+02
      4.175  0.1500E+01  0.1499E+01  0.1288E+02  0.1288E+02
      4.306  0.1583E+01  0.1583E+01  0.1308E+02  0.1308E+02
      4.437  0.1547E+01  0.1548E+01  0.1329E+02  0.1329E+02
      4.568  0.1760E+01  0.1761E+01  0.1352E+02  0.1352E+02
      4.698  0.1858E+01  0.1858E+01  0.1376E+02  0.1376E+02
      4.829  0.1921E+01  0.1921E+01  0.1401E+02  0.1401E+02
      4.960  0.1987E+01  0.1987E+01  0.1427E+02  0.1427E+02
      5.091  0.2196E+01  0.2196E+01  0.1456E+02  0.1456E+02
      5.222  0.3079E+01  0.3080E+01  0.1496E+02  0.1496E+02
      5.352  0.3353E+01  0.3353E+01  0.1540E+02  0.1540E+02
      5.483  0.2523E+01  0.2522E+01  0.1573E+02  0.1573E+02
      5.614  0.1929E+01  0.1929E+01  0.1599E+02  0.1599E+02
      5.745  0.1809E+01  0.1809E+01  0.1622E+02  0.1622E+02
      5.876  0.1922E+01  0.1923E+01  0.1647E+02  0.1647E+02
      6.006  0.2230E+01  0.2231E+01  0.1677E+02  0.1677E+02
      6.137  0.2190E+01  0.2189E+01  0.1705E+02  0.1705E+02
      6.268  0.2108E+01  0.2108E+01  0.1733E+02  0.1733E+02
      6.399  0.2060E+01  0.2060E+01  0.1760E+02  0.1760E+02
      6.530  0.2710E+01  0.2710E+01  0.1795E+02  0.1795E+02
      6.660  0.3222E+01  0.3221E+01  0.1838E+02  0.1838E+02
      6.791  0.2560E+01  0.2560E+01  0.1871E+02  0.1871E+02
      6.922  0.2289E+01  0.2289E+01  0.1901E+02  0.1901E+02
      7.053  0.1740E+01  0.1740E+01  0.1924E+02  0.1924E+02
      7.184  0.1526E+01  0.1526E+01  0.1944E+02  0.1944E+02
      7.314  0.1224E+01  0.1223E+01  0.1960E+02  0.1960E+02
      7.445  0.1008E+01  0.1008E+01  0.1973E+02  0.1973E+02
      7.576  0.9796E+00  0.9796E+00  0.1986E+02  0.1986E+02
      7.707  0.9725E+00  0.9725E+00  0.1999E+02  0.1999E+02
      7.838  0.1213E+01  0.1213E+01  0.2015E+02  0.2015E+02
      7.968  0.1441E+01  0.1441E+01  0.2034E+02  0.2034E+02
      8.099  0.1635E+01  0.1635E+01  0.2055E+02  0.2055E+02
      8.230  0.1457E+01  0.1456E+01  0.2074E+02  0.2074E+02
      8.361  0.1664E+01  0.1664E+01  0.2096E+02  0.2096E+02
      8.492  0.2104E+01  0.2104E+01  0.2123E+02  0.2123E+02
      8.622  0.2374E+01  0.2374E+01  0.2154E+02  0.2155E+02
      8.753  0.2809E+01  0.2809E+01  0.2191E+02  0.2191E+02
      8.884  0.3281E+01  0.3281E+01  0.2234E+02  0.2234E+02
      9.015  0.3202E+01  0.3201E+01  0.2276E+02  0.2276E+02
      9.145  0.3648E+01  0.3648E+01  0.2324E+02  0.2324E+02
      9.276  0.3097E+01  0.3097E+01  0.2365E+02  0.2365E+02
      9.407  0.2698E+01  0.2697E+01  0.2400E+02  0.2400E+02
      9.538  0.2881E+01  0.2881E+01  0.2438E+02  0.2438E+02
      9.669  0.3050E+01  0.3049E+01  0.2478E+02  0.2478E+02
      9.799  0.3627E+01  0.3627E+01  0.2525E+02  0.2525E+02
      9.930  0.2988E+01  0.2989E+01  0.2564E+02  0.2564E+02
     10.061  0.2098E+01  0.2098E+01  0.2592E+02  0.2592E+02
     10.192  0.1591E+01  0.1591E+01  0.2613E+02  0.2613E+02
     10.323  0.1419E+01  0.1421E+01  0.2631E+02  0.2631E+02
     10.453  0.1414E+01  0.1415E+01  0.2650E+02  0.2650E+02
     10.584  0.1923E+01  0.1929E+01  0.2675E+02  0.2675E+02
     10.715  0.2263E+01  0.2287E+01  0.2705E+02  0.2705E+02
     10.846  0.1988E+01  0.1965E+01  0.2731E+02  0.2731E+02
     10.977  0.1572E+01  0.1558E+01  0.2751E+02  0.2751E+02
     11.107  0.1277E+01  0.1268E+01  0.2768E+02  0.2768E+02
     11.238  0.8784E+00  0.8725E+00  0.2780E+02  0.2779E+02
     11.369  0.6865E+00  0.6984E+00  0.2789E+02  0.2788E+02
     11.500  0.4750E+00  0.4965E+00  0.2795E+02  0.2795E+02
     11.631  0.2546E+00  0.2415E+00  0.2798E+02  0.2798E+02
     11.761  0.6509E-01  0.6229E-01  0.2799E+02  0.2799E+02
     11.892  0.2350E-01  0.2473E-01  0.2799E+02  0.2799E+02
     12.023  0.1973E-01  0.2127E-01  0.2800E+02  0.2800E+02
     12.154  0.1299E-01  0.1698E-01  0.2800E+02  0.2800E+02
     12.285  0.1514E-01  0.1074E-01  0.2800E+02  0.2800E+02
     12.415  0.3761E-02  0.1385E-02  0.2800E+02  0.2800E+02
     12.546  0.3266E-03  0.0000E+00  0.2800E+02  0.2800E+02
     12.677  0.0000E+00  0.0000E+00  0.2800E+02  0.2800E+02
     12.808  0.0000E+00  0.0000E+00  0.2800E+02  0.2800E+02
     12.939  0.0000E+00  0.0000E+00  0.2800E+02  0.2800E+02
     13.069  0.0000E+00  0.0000E+00  0.2800E+02  0.2800E+02
     13.200  0.0000E+00  0.0000E+00  0.2800E+02  0.2800E+02
     13.331  0.0000E+00  0.0000E+00  0.2800E+02  0.2800E+02
     13.462  0.0000E+00  0.0000E+00  0.2800E+02  0.2800E+02
     13.593  0.0000E+00  0.0000E+00  0.2800E+02  0.2800E+02
     13.723  0.0000E+00  0.0000E+00  0.2800E+02  0.2800E+02
     13.854  0.0000E+00  0.0000E+00  0.2800E+02  0.2800E+02
     13.985  0.0000E+00  0.0000E+00  0.2800E+02  0.2800E+02
     13.98494578    -25.25389908  301      6.91624200      1.00000000
    -25.254  0.0000E+00  0.0000E+00  0.0000E+00  0.0000E+00  0.0000E+00  0.0000E+00  0.0000E+00  0.0000E+00  0.0000E+00  0.0000E+00  0.0000E+00  0.0000E+00  0.0000E+00  0.0000E+00  0.0000E+00  0.0000E+00  0.0000E+00  0.0000E+00
    -25.123  0.0000E+00  0.0000E+00  0.0000E+00  0.0000E+00  0.0000E+00  0.0000E+00  0.0000E+00  0.0000E+00  0.0000E+00  0.0000E+00  0.0000E+00  0.0000E+00  0.0000E+00  0.0000E+00  0.0000E+00  0.0000E+00  0.0000E+00  0.0000E+00
    -24.992  0.0000E+00  0.0000E+00  0.0000E+00  0.0000E+00  0.0000E+00  0.0000E+00  0.0000E+00  0.0000E+00  0.0000E+00  0.0000E+00  0.0000E+00  0.0000E+00  0.0000E+00  0.0000E+00  0.0000E+00  0.0000E+00  0.0000E+00  0.0000E+00
    -24.862  0.0000E+00  0.0000E+00  0.0000E+00  0.0000E+00  0.0000E+00  0.0000E+00  0.0000E+00  0.0000E+00  0.0000E+00  0.0000E+00  0.0000E+00  0.0000E+00  0.0000E+00  0.0000E+00  0.0000E+00  0.0000E+00  0.0000E+00  0.0000E+00
    -24.731  0.0000E+00  0.0000E+00  0.0000E+00  0.0000E+00  0.0000E+00  0.0000E+00  0.0000E+00  0.0000E+00  0.0000E+00  0.0000E+00  0.0000E+00  0.0000E+00  0.0000E+00  0.0000E+00  0.0000E+00  0.0000E+00  0.0000E+00  0.0000E+00
    -24.600  0.0000E+00  0.0000E+00  0.0000E+00  0.0000E+00  0.0000E+00  0.0000E+00  0.0000E+00  0.0000E+00  0.0000E+00  0.0000E+00  0.0000E+00  0.0000E+00  0.0000E+00  0.0000E+00  0.0000E+00  0.0000E+00  0.0000E+00  0.0000E+00
    -24.469  0.0000E+00  0.0000E+00  0.0000E+00  0.0000E+00  0.0000E+00  0.0000E+00  0.0000E+00  0.0000E+00  0.0000E+00  0.0000E+00  0.0000E+00  0.0000E+00  0.0000E+00  0.0000E+00  0.0000E+00  0.0000E+00  0.0000E+00  0.0000E+00
    -24.338  0.0000E+00  0.0000E+00  0.0000E+00  0.0000E+00  0.0000E+00  0.0000E+00  0.0000E+00  0.0000E+00  0.0000E+00  0.0000E+00  0.0000E+00  0.0000E+00  0.0000E+00  0.0000E+00  0.0000E+00  0.0000E+00  0.0000E+00  0.0000E+00
    -24.208  0.0000E+00  0.0000E+00  0.0000E+00  0.0000E+00  0.0000E+00  0.0000E+00  0.0000E+00  0.0000E+00  0.0000E+00  0.0000E+00  0.0000E+00  0.0000E+00  0.0000E+00  0.0000E+00  0.0000E+00  0.0000E+00  0.0000E+00  0.0000E+00
    -24.077  0.0000E+00  0.0000E+00  0.0000E+00  0.0000E+00  0.0000E+00  0.0000E+00  0.0000E+00  0.0000E+00  0.0000E+00  0.0000E+00  0.0000E+00  0.0000E+00  0.0000E+00  0.0000E+00  0.0000E+00  0.0000E+00  0.0000E+00  0.0000E+00
    -23.946  0.3004E-09  0.2976E-09  0.3929E-03  0.3892E-03  0.3840E-07  0.3803E-07  0.3929E-03  0.3892E-03  0.1672E-10  0.1662E-10  0.1043E-11  0.1042E-11  0.1179E-09  0.1167E-09  0.1043E-11  0.1042E-11  0.3456E-09  0.3421E-09
    -23.815  0.3810E-08  0.3775E-08  0.4978E-02  0.4932E-02  0.4208E-03  0.4164E-03  0.4978E-02  0.4932E-02  0.2123E-09  0.2110E-09  0.2385E-10  0.2371E-10  0.1496E-08  0.1480E-08  0.2385E-10  0.2371E-10  0.4379E-08  0.4334E-08
    -23.684  0.5160E-07  0.5113E-07  0.6741E-01  0.6678E-01  0.5331E-02  0.5277E-02  0.6741E-01  0.6678E-01  0.2872E-08  0.2856E-08  0.3136E-09  0.3118E-09  0.2026E-07  0.2005E-07  0.3136E-09  0.3118E-09  0.5931E-07  0.5872E-07
    -23.554  0.6215E-06  0.6165E-06  0.8089E+00  0.8023E+00  0.7217E-01  0.7143E-01  0.8089E+00  0.8023E+00  0.3421E-07  0.3405E-07  0.3949E-08  0.3928E-08  0.2440E-06  0.2417E-06  0.3949E-08  0.3928E-08  0.7153E-06  0.7089E-06
    -23.423  0.3032E-05  0.3026E-05  0.3909E+01  0.3900E+01  0.8631E+00  0.8554E+00  0.3909E+01  0.3900E+01  0.1587E-06  0.1588E-06  0.3146E-07  0.3128E-07  0.1190E-05  0.1186E-05  0.3146E-07  0.3128E-07  0.3510E-05  0.3500E-05
    -23.292  0.1880E-05  0.1891E-05  0.2405E+01  0.2418E+01  0.4023E+01  0.4014E+01  0.2405E+01  0.2418E+01  0.9582E-07  0.9644E-07  0.1058E-06  0.1054E-06  0.7336E-06  0.7368E-06  0.1058E-06  0.1054E-06  0.2156E-05  0.2167E-05
    -23.161  0.2335E-06  0.2357E-06  0.2799E+00  0.2824E+00  0.2262E+01  0.2276E+01  0.2799E+00  0.2824E+00  0.1303E-07  0.1313E-07  0.5617E-07  0.5642E-07  0.8889E-07  0.8956E-07  0.5617E-07  0.5642E-07  0.2485E-06  0.2506E-06
    -23.030  0.2443E-08  0.2487E-08  0.1083E-04  0.1094E-04  0.2491E+00  0.2516E+00  0.1083E-04  0.1094E-04  0.3024E-09  0.3025E-09  0.6084E-08  0.6131E-08  0.6476E-09  0.6504E-09  0.6084E-08  0.6131E-08  0.3024E-11  0.2684E-11
    -22.900  0.0000E+00  0.0000E+00  0.0000E+00  0.0000E+00  0.0000E+00  0.0000E+00  0.0000E+00  0.0000E+00  0.0000E+00  0.0000E+00  0.0000E+00  0.0000E+00  0.0000E+00  0.0000E+00  0.0000E+00  0.0000E+00  0.0000E+00  0.0000E+00
    -22.769  0.0000E+00  0.0000E+00  0.0000E+00  0.0000E+00  0.0000E+00  0.0000E+00  0.0000E+00  0.0000E+00  0.0000E+00  0.0000E+00  0.0000E+00  0.0000E+00  0.0000E+00  0.0000E+00  0.0000E+00  0.0000E+00  0.0000E+00  0.0000E+00
    -22.638  0.0000E+00  0.0000E+00  0.0000E+00  0.0000E+00  0.0000E+00  0.0000E+00  0.0000E+00  0.0000E+00  0.0000E+00  0.0000E+00  0.0000E+00  0.0000E+00  0.0000E+00  0.0000E+00  0.0000E+00  0.0000E+00  0.0000E+00  0.0000E+00
    -22.507  0.0000E+00  0.0000E+00  0.0000E+00  0.0000E+00  0.0000E+00  0.0000E+00  0.0000E+00  0.0000E+00  0.0000E+00  0.0000E+00  0.0000E+00  0.0000E+00  0.0000E+00  0.0000E+00  0.0000E+00  0.0000E+00  0.0000E+00  0.0000E+00
    -22.376  0.0000E+00  0.0000E+00  0.0000E+00  0.0000E+00  0.0000E+00  0.0000E+00  0.0000E+00  0.0000E+00  0.0000E+00  0.0000E+00  0.0000E+00  0.0000E+00  0.0000E+00  0.0000E+00  0.0000E+00  0.0000E+00  0.0000E+00  0.0000E+00
    -22.246  0.0000E+00  0.0000E+00  0.0000E+00  0.0000E+00  0.0000E+00  0.0000E+00  0.0000E+00  0.0000E+00  0.0000E+00  0.0000E+00  0.0000E+00  0.0000E+00  0.0000E+00  0.0000E+00  0.0000E+00  0.0000E+00  0.0000E+00  0.0000E+00
    -22.115  0.0000E+00  0.0000E+00  0.0000E+00  0.0000E+00  0.0000E+00  0.0000E+00  0.0000E+00  0.0000E+00  0.0000E+00  0.0000E+00  0.0000E+00  0.0000E+00  0.0000E+00  0.0000E+00  0.0000E+00  0.0000E+00  0.0000E+00  0.0000E+00
    -21.984  0.0000E+00  0.0000E+00  0.0000E+00  0.0000E+00  0.0000E+00  0.0000E+00  0.0000E+00  0.0000E+00  0.0000E+00  0.0000E+00  0.0000E+00  0.0000E+00  0.0000E+00  0.0000E+00  0.0000E+00  0.0000E+00  0.0000E+00  0.0000E+00
    -21.853  0.0000E+00  0.0000E+00  0.0000E+00  0.0000E+00  0.0000E+00  0.0000E+00  0.0000E+00  0.0000E+00  0.0000E+00  0.0000E+00  0.0000E+00  0.0000E+00  0.0000E+00  0.0000E+00  0.0000E+00  0.0000E+00  0.0000E+00  0.0000E+00
    -21.722  0.0000E+00  0.0000E+00  0.0000E+00  0.0000E+00  0.0000E+00  0.0000E+00  0.0000E+00  0.0000E+00  0.0000E+00  0.0000E+00  0.0000E+00  0.0000E+00  0.0000E+00  0.0000E+00  0.0000E+00  0.0000E+00  0.0000E+00  0.0000E+00
    -21.592  0.0000E+00  0.0000E+00  0.0000E+00  0.0000E+00  0.0000E+00  0.0000E+00  0.0000E+00  0.0000E+00  0.0000E+00  0.0000E+00  0.0000E+00  0.0000E+00  0.0000E+00  0.0000E+00  0.0000E+00  0.0000E+00  0.0000E+00  0.0000E+00
    -21.461  0.0000E+00  0.0000E+00  0.0000E+00  0.0000E+00  0.0000E+00  0.0000E+00  0.0000E+00  0.0000E+00  0.0000E+00  0.0000E+00  0.0000E+00  0.0000E+00  0.0000E+00  0.0000E+00  0.0000E+00  0.0000E+00  0.0000E+00  0.0000E+00
    -21.330  0.0000E+00  0.0000E+00  0.0000E+00  0.0000E+00  0.0000E+00  0.0000E+00  0.0000E+00  0.0000E+00  0.0000E+00  0.0000E+00  0.0000E+00  0.0000E+00  0.0000E+00  0.0000E+00  0.0000E+00  0.0000E+00  0.0000E+00  0.0000E+00
    -21.199  0.0000E+00  0.0000E+00  0.0000E+00  0.0000E+00  0.0000E+00  0.0000E+00  0.0000E+00  0.0000E+00  0.0000E+00  0.0000E+00  0.0000E+00  0.0000E+00  0.0000E+00  0.0000E+00  0.0000E+00  0.0000E+00  0.0000E+00  0.0000E+00
    -21.068  0.0000E+00  0.0000E+00  0.0000E+00  0.0000E+00  0.0000E+00  0.0000E+00  0.0000E+00  0.0000E+00  0.0000E+00  0.0000E+00  0.0000E+00  0.0000E+00  0.0000E+00  0.0000E+00  0.0000E+00  0.0000E+00  0.0000E+00  0.0000E+00
    -20.938  0.0000E+00  0.0000E+00  0.0000E+00  0.0000E+00  0.0000E+00  0.0000E+00  0.0000E+00  0.0000E+00  0.0000E+00  0.0000E+00  0.0000E+00  0.0000E+00  0.0000E+00  0.0000E+00  0.0000E+00  0.0000E+00  0.0000E+00  0.0000E+00
    -20.807  0.0000E+00  0.0000E+00  0.0000E+00  0.0000E+00  0.0000E+00  0.0000E+00  0.0000E+00  0.0000E+00  0.0000E+00  0.0000E+00  0.0000E+00  0.0000E+00  0.0000E+00  0.0000E+00  0.0000E+00  0.0000E+00  0.0000E+00  0.0000E+00
    -20.676  0.0000E+00  0.0000E+00  0.0000E+00  0.0000E+00  0.0000E+00  0.0000E+00  0.0000E+00  0.0000E+00  0.0000E+00  0.0000E+00  0.0000E+00  0.0000E+00  0.0000E+00  0.0000E+00  0.0000E+00  0.0000E+00  0.0000E+00  0.0000E+00
    -20.545  0.0000E+00  0.0000E+00  0.0000E+00  0.0000E+00  0.0000E+00  0.0000E+00  0.0000E+00  0.0000E+00  0.0000E+00  0.0000E+00  0.0000E+00  0.0000E+00  0.0000E+00  0.0000E+00  0.0000E+00  0.0000E+00  0.0000E+00  0.0000E+00
    -20.414  0.0000E+00  0.0000E+00  0.0000E+00  0.0000E+00  0.0000E+00  0.0000E+00  0.0000E+00  0.0000E+00  0.0000E+00  0.0000E+00  0.0000E+00  0.0000E+00  0.0000E+00  0.0000E+00  0.0000E+00  0.0000E+00  0.0000E+00  0.0000E+00
    -20.284  0.0000E+00  0.0000E+00  0.0000E+00  0.0000E+00  0.0000E+00  0.0000E+00  0.0000E+00  0.0000E+00  0.0000E+00  0.0000E+00  0.0000E+00  0.0000E+00  0.0000E+00  0.0000E+00  0.0000E+00  0.0000E+00  0.0000E+00  0.0000E+00
    -20.153  0.0000E+00  0.0000E+00  0.0000E+00  0.0000E+00  0.0000E+00  0.0000E+00  0.0000E+00  0.0000E+00  0.0000E+00  0.0000E+00  0.0000E+00  0.0000E+00  0.0000E+00  0.0000E+00  0.0000E+00  0.0000E+00  0.0000E+00  0.0000E+00
    -20.022  0.0000E+00  0.0000E+00  0.0000E+00  0.0000E+00  0.0000E+00  0.0000E+00  0.0000E+00  0.0000E+00  0.0000E+00  0.0000E+00  0.0000E+00  0.0000E+00  0.0000E+00  0.0000E+00  0.0000E+00  0.0000E+00  0.0000E+00  0.0000E+00
    -19.891  0.0000E+00  0.0000E+00  0.0000E+00  0.0000E+00  0.0000E+00  0.0000E+00  0.0000E+00  0.0000E+00  0.0000E+00  0.0000E+00  0.0000E+00  0.0000E+00  0.0000E+00  0.0000E+00  0.0000E+00  0.0000E+00  0.0000E+00  0.0000E+00
    -19.760  0.0000E+00  0.0000E+00  0.0000E+00  0.0000E+00  0.0000E+00  0.0000E+00  0.0000E+00  0.0000E+00  0.0000E+00  0.0000E+00  0.0000E+00  0.0000E+00  0.0000E+00  0.0000E+00  0.0000E+00  0.0000E+00  0.0000E+00  0.0000E+00
    -19.630  0.0000E+00  0.0000E+00  0.0000E+00  0.0000E+00  0.0000E+00  0.0000E+00  0.0000E+00  0.0000E+00  0.0000E+00  0.0000E+00  0.0000E+00  0.0000E+00  0.0000E+00  0.0000E+00  0.0000E+00  0.0000E+00  0.0000E+00  0.0000E+00
    -19.499  0.0000E+00  0.0000E+00  0.0000E+00  0.0000E+00  0.0000E+00  0.0000E+00  0.0000E+00  0.0000E+00  0.0000E+00  0.0000E+00  0.0000E+00  0.0000E+00  0.0000E+00  0.0000E+00  0.0000E+00  0.0000E+00  0.0000E+00  0.0000E+00
    -19.368  0.0000E+00  0.0000E+00  0.0000E+00  0.0000E+00  0.0000E+00  0.0000E+00  0.0000E+00  0.0000E+00  0.0000E+00  0.0000E+00  0.0000E+00  0.0000E+00  0.0000E+00  0.0000E+00  0.0000E+00  0.0000E+00  0.0000E+00  0.0000E+00
    -19.237  0.0000E+00  0.0000E+00  0.0000E+00  0.0000E+00  0.0000E+00  0.0000E+00  0.0000E+00  0.0000E+00  0.0000E+00  0.0000E+00  0.0000E+00  0.0000E+00  0.0000E+00  0.0000E+00  0.0000E+00  0.0000E+00  0.0000E+00  0.0000E+00
    -19.106  0.0000E+00  0.0000E+00  0.0000E+00  0.0000E+00  0.0000E+00  0.0000E+00  0.0000E+00  0.0000E+00  0.0000E+00  0.0000E+00  0.0000E+00  0.0000E+00  0.0000E+00  0.0000E+00  0.0000E+00  0.0000E+00  0.0000E+00  0.0000E+00
    -18.976  0.0000E+00  0.0000E+00  0.0000E+00  0.0000E+00  0.0000E+00  0.0000E+00  0.0000E+00  0.0000E+00  0.0000E+00  0.0000E+00  0.0000E+00  0.0000E+00  0.0000E+00  0.0000E+00  0.0000E+00  0.0000E+00  0.0000E+00  0.0000E+00
    -18.845  0.0000E+00  0.0000E+00  0.0000E+00  0.0000E+00  0.0000E+00  0.0000E+00  0.0000E+00  0.0000E+00  0.0000E+00  0.0000E+00  0.0000E+00  0.0000E+00  0.0000E+00  0.0000E+00  0.0000E+00  0.0000E+00  0.0000E+00  0.0000E+00
    -18.714  0.0000E+00  0.0000E+00  0.0000E+00  0.0000E+00  0.0000E+00  0.0000E+00  0.0000E+00  0.0000E+00  0.0000E+00  0.0000E+00  0.0000E+00  0.0000E+00  0.0000E+00  0.0000E+00  0.0000E+00  0.0000E+00  0.0000E+00  0.0000E+00