   8   8   1   0
  0.2137367E+02  0.4405342E-09  0.4405342E-09  0.8810685E-09  0.5000000E-15
  1.000000000000000E-004
  CAR 
 unknown system                          
     11.03472024    -27.57982160  301      5.25613070      1.00000000
    -27.580  0.0000E+00  0.0000E+00  0.0000E+00  0.0000E+00
    -27.451  0.0000E+00  0.0000E+00  0.0000E+00  0.0000E+00
    -27.322  0.0000E+00  0.0000E+00  0.0000E+00  0.0000E+00
    -27.194  0.0000E+00  0.0000E+00  0.0000E+00  0.0000E+00
    -27.065  0.0000E+00  0.0000E+00  0.0000E+00  0.0000E+00
    -26.936  0.0000E+00  0.0000E+00  0.0000E+00  0.0000E+00
    -26.808  0.0000E+00  0.0000E+00  0.0000E+00  0.0000E+00
    -26.679  0.0000E+00  0.0000E+00  0.0000E+00  0.0000E+00
    -26.550  0.0000E+00  0.0000E+00  0.0000E+00  0.0000E+00
    -26.421  0.0000E+00  0.0000E+00  0.0000E+00  0.0000E+00
    -26.293  0.2344E-02  0.2350E-02  0.3017E-03  0.3024E-03
    -26.164  0.2957E-01  0.2963E-01  0.4108E-02  0.4116E-02
    -26.035  0.3821E+00  0.3828E+00  0.5328E-01  0.5339E-01
    -25.907  0.4309E+01  0.4315E+01  0.6079E+00  0.6088E+00
    -25.778  0.1900E+02  0.1899E+02  0.3054E+01  0.3053E+01
    -25.649  0.1709E+02  0.1707E+02  0.5254E+01  0.5250E+01
    -25.520  0.5210E+01  0.5232E+01  0.5924E+01  0.5924E+01
    -25.392  0.4672E+00  0.4710E+00  0.5995E+01  0.5995E+01
    -25.263  0.0000E+00  0.0000E+00  0.6000E+01  0.6000E+01
    -25.134  0.0000E+00  0.0000E+00  0.6000E+01  0.6000E+01
    -25.006  0.0000E+00  0.0000E+00  0.6000E+01  0.6000E+01
    -24.877  0.0000E+00  0.0000E+00  0.6000E+01  0.6000E+01
    -24.748  0.0000E+00  0.0000E+00  0.6000E+01  0.6000E+01
    -24.619  0.0000E+00  0.0000E+00  0.6000E+01  0.6000E+01
    -24.491  0.0000E+00  0.0000E+00  0.6000E+01  0.6000E+01
    -24.362  0.0000E+00  0.0000E+00  0.6000E+01  0.6000E+01
    -24.233  0.0000E+00  0.0000E+00  0.6000E+01  0.6000E+01
    -24.105  0.0000E+00  0.0000E+00  0.6000E+01  0.6000E+01
    -23.976  0.0000E+00  0.0000E+00  0.6000E+01  0.6000E+01
    -23.847  0.0000E+00  0.0000E+00  0.6000E+01  0.6000E+01
    -23.718  0.0000E+00  0.0000E+00  0.6000E+01  0.6000E+01
    -23.590  0.0000E+00  0.0000E+00  0.6000E+01  0.6000E+01
    -23.461  0.0000E+00  0.0000E+00  0.6000E+01  0.6000E+01
    -23.332  0.0000E+00  0.0000E+00  0.6000E+01  0.6000E+01
    -23.204  0.0000E+00  0.0000E+00  0.6000E+01  0.6000E+01
    -23.075  0.0000E+00  0.0000E+00  0.6000E+01  0.6000E+01
    -22.946  0.0000E+00  0.0000E+00  0.6000E+01  0.6000E+01
    -22.817  0.0000E+00  0.0000E+00  0.6000E+01  0.6000E+01
    -22.689  0.0000E+00  0.0000E+00  0.6000E+01  0.6000E+01
    -22.560  0.0000E+00  0.0000E+00  0.6000E+01  0.6000E+01
    -22.431  0.0000E+00  0.0000E+00  0.6000E+01  0.6000E+01
    -22.303  0.0000E+00  0.0000E+00  0.6000E+01  0.6000E+01
    -22.174  0.0000E+00  0.0000E+00  0.6000E+01  0.6000E+01
    -22.045  0.0000E+00  0.0000E+00  0.6000E+01  0.6000E+01
    -21.916  0.0000E+00  0.0000E+00  0.6000E+01  0.6000E+01
    -21.788  0.0000E+00  0.0000E+00  0.6000E+01  0.6000E+01
    -21.659  0.0000E+00  0.0000E+00  0.6000E+01  0.6000E+01
    -21.530  0.0000E+00  0.0000E+00  0.6000E+01  0.6000E+01
    -21.401  0.0000E+00  0.0000E+00  0.6000E+01  0.6000E+01
    -21.273  0.0000E+00  0.0000E+00  0.6000E+01  0.6000E+01
    -21.144  0.0000E+00  0.0000E+00  0.6000E+01  0.6000E+01
    -21.015  0.0000E+00  0.0000E+00  0.6000E+01  0.6000E+01
    -20.887  0.0000E+00  0.0000E+00  0.6000E+01  0.6000E+01
    -20.758  0.0000E+00  0.0000E+00  0.6000E+01  0.6000E+01
    -20.629  0.0000E+00  0.0000E+00  0.6000E+01  0.6000E+01
    -20.500  0.0000E+00  0.0000E+00  0.6000E+01  0.6000E+01
    -20.372  0.0000E+00  0.0000E+00  0.6000E+01  0.6000E+01
    -20.243  0.0000E+00  0.0000E+00  0.6000E+01  0.6000E+01
    -20.114  0.0000E+00  0.0000E+00  0.6000E+01  0.6000E+01
    -19.986  0.0000E+00  0.0000E+00  0.6000E+01  0.6000E+01
    -19.857  0.0000E+00  0.0000E+00  0.6000E+01  0.6000E+01
    -19.728  0.0000E+00  0.0000E+00  0.6000E+01  0.6000E+01
    -19.599  0.0000E+00  0.0000E+00  0.6000E+01  0.6000E+01
    -19.471  0.0000E+00  0.0000E+00  0.6000E+01  0.6000E+01
    -19.342  0.0000E+00  0.0000E+00  0.6000E+01  0.6000E+01
    -19.213  0.0000E+00  0.0000E+00  0.6000E+01  0.6000E+01
    -19.085  0.0000E+00  0.0000E+00  0.6000E+01  0.6000E+01
    -18.956  0.0000E+00  0.0000E+00  0.6000E+01  0.6000E+01
    -18.827  0.0000E+00  0.0000E+00  0.6000E+01  0.6000E+01
    -18.698  0.0000E+00  0.0000E+00  0.6000E+01  0.6000E+01
    -18.570  0.0000E+00  0.0000E+00  0.6000E+01  0.6000E+01
    -18.441  0.0000E+00  0.0000E+00  0.6000E+01  0.6000E+01
    -18.312  0.0000E+00  0.0000E+00  0.6000E+01  0.6000E+01
    -18.184  0.0000E+00  0.0000E+00  0.6000E+01  0.6000E+01
    -18.055  0.0000E+00  0.0000E+00  0.6000E+01  0.6000E+01
    -17.926  0.0000E+00  0.0000E+00  0.6000E+01  0.6000E+01
    -17.797  0.0000E+00  0.0000E+00  0.6000E+01  0.6000E+01
    -17.669  0.0000E+00  0.0000E+00  0.6000E+01  0.6000E+01
    -17.540  0.0000E+00  0.0000E+00  0.6000E+01  0.6000E+01
    -17.411  0.0000E+00  0.0000E+00  0.6000E+01  0.6000E+01
    -17.283  0.0000E+00  0.0000E+00  0.6000E+01  0.6000E+01
    -17.154  0.0000E+00  0.0000E+00  0.6000E+01  0.6000E+01
    -17.025  0.0000E+00  0.0000E+00  0.6000E+01  0.6000E+01
    -16.896  0.0000E+00  0.0000E+00  0.6000E+01  0.6000E+01
    -16.768  0.0000E+00  0.0000E+00  0.6000E+01  0.6000E+01
    -16.639  0.0000E+00  0.0000E+00  0.6000E+01  0.6000E+01
    -16.510  0.0000E+00  0.0000E+00  0.6000E+01  0.6000E+01
    -16.382  0.0000E+00  0.0000E+00  0.6000E+01  0.6000E+01
    -16.253  0.0000E+00  0.0000E+00  0.6000E+01  0.6000E+01
    -16.124  0.0000E+00  0.0000E+00  0.6000E+01  0.6000E+01
    -15.995  0.0000E+00  0.0000E+00  0.6000E+01  0.6000E+01
    -15.867  0.0000E+00  0.0000E+00  0.6000E+01  0.6000E+01
    -15.738  0.0000E+00  0.0000E+00  0.6000E+01  0.6000E+01
    -15.609  0.0000E+00  0.0000E+00  0.6000E+01  0.6000E+01
    -15.481  0.0000E+00  0.0000E+00  0.6000E+01  0.6000E+01
    -15.352  0.0000E+00  0.0000E+00  0.6000E+01  0.6000E+01
    -15.223  0.0000E+00  0.0000E+00  0.6000E+01  0.6000E+01
    -15.094  0.0000E+00  0.0000E+00  0.6000E+01  0.6000E+01
    -14.966  0.0000E+00  0.0000E+00  0.6000E+01  0.6000E+01
    -14.837  0.0000E+00  0.0000E+00  0.6000E+01  0.6000E+01
    -14.708  0.0000E+00  0.0000E+00  0.6000E+01  0.6000E+01
    -14.580  0.0000E+00  0.0000E+00  0.6000E+01  0.6000E+01
    -14.451  0.0000E+00  0.0000E+00  0.6000E+01  0.6000E+01
    -14.322  0.0000E+00  0.0000E+00  0.6000E+01  0.6000E+01
    -14.193  0.0000E+00  0.0000E+00  0.6000E+01  0.6000E+01
    -14.065  0.0000E+00  0.0000E+00  0.6000E+01  0.6000E+01
    -13.936  0.0000E+00  0.0000E+00  0.6000E+01  0.6000E+01
    -13.807  0.0000E+00  0.0000E+00  0.6000E+01  0.6000E+01
    -13.679  0.0000E+00  0.0000E+00  0.6000E+01  0.6000E+01
    -13.550  0.0000E+00  0.0000E+00  0.6000E+01  0.6000E+01
    -13.421  0.0000E+00  0.0000E+00  0.6000E+01  0.6000E+01
    -13.292  0.0000E+00  0.0000E+00  0.6000E+01  0.6000E+01
    -13.164  0.0000E+00  0.0000E+00  0.6000E+01  0.6000E+01
    -13.035  0.0000E+00  0.0000E+00  0.6000E+01  0.6000E+01
    -12.906  0.0000E+00  0.0000E+00  0.6000E+01  0.6000E+01
    -12.778  0.0000E+00  0.0000E+00  0.6000E+01  0.6000E+01
    -12.649  0.0000E+00  0.0000E+00  0.6000E+01  0.6000E+01
    -12.520  0.0000E+00  0.0000E+00  0.6000E+01  0.6000E+01
    -12.391  0.0000E+00  0.0000E+00  0.6000E+01  0.6000E+01
    -12.263  0.0000E+00  0.0000E+00  0.6000E+01  0.6000E+01
    -12.134  0.0000E+00  0.0000E+00  0.6000E+01  0.6000E+01
    -12.005  0.0000E+00  0.0000E+00  0.6000E+01  0.6000E+01
    -11.877  0.0000E+00  0.0000E+00  0.6000E+01  0.6000E+01
    -11.748  0.0000E+00  0.0000E+00  0.6000E+01  0.6000E+01
    -11.619  0.0000E+00  0.0000E+00  0.6000E+01  0.6000E+01
    -11.490  0.0000E+00  0.0000E+00  0.6000E+01  0.6000E+01
    -11.362  0.0000E+00  0.0000E+00  0.6000E+01  0.6000E+01
    -11.233  0.0000E+00  0.0000E+00  0.6000E+01  0.6000E+01
    -11.104  0.0000E+00  0.0000E+00  0.6000E+01  0.6000E+01
    -10.976  0.0000E+00  0.0000E+00  0.6000E+01  0.6000E+01
    -10.847  0.0000E+00  0.0000E+00  0.6000E+01  0.6000E+01
    -10.718  0.0000E+00  0.0000E+00  0.6000E+01  0.6000E+01
    -10.589  0.0000E+00  0.0000E+00  0.6000E+01  0.6000E+01
    -10.461  0.0000E+00  0.0000E+00  0.6000E+01  0.6000E+01
    -10.332  0.0000E+00  0.0000E+00  0.6000E+01  0.6000E+01
    -10.203  0.0000E+00  0.0000E+00  0.6000E+01  0.6000E+01
    -10.075  0.0000E+00  0.0000E+00  0.6000E+01  0.6000E+01
     -9.946  0.0000E+00  0.0000E+00  0.6000E+01  0.6000E+01
     -9.817  0.0000E+00  0.0000E+00  0.6000E+01  0.6000E+01
     -9.688  0.0000E+00  0.0000E+00  0.6000E+01  0.6000E+01
     -9.560  0.0000E+00  0.0000E+00  0.6000E+01  0.6000E+01
     -9.431  0.0000E+00  0.0000E+00  0.6000E+01  0.6000E+01
     -9.302  0.0000E+00  0.0000E+00  0.6000E+01  0.6000E+01
     -9.174  0.0000E+00  0.0000E+00  0.6000E+01  0.6000E+01
     -9.045  0.0000E+00  0.0000E+00  0.6000E+01  0.6000E+01
     -8.916  0.0000E+00  0.0000E+00  0.6000E+01  0.6000E+01
     -8.787  0.0000E+00  0.0000E+00  0.6000E+01  0.6000E+01
     -8.659  0.0000E+00  0.0000E+00  0.6000E+01  0.6000E+01
     -8.530  0.0000E+00  0.0000E+00  0.6000E+01  0.6000E+01
     -8.401  0.0000E+00  0.0000E+00  0.6000E+01  0.6000E+01
     -8.273  0.0000E+00  0.0000E+00  0.6000E+01  0.6000E+01
     -8.144  0.0000E+00  0.0000E+00  0.6000E+01  0.6000E+01
     -8.015  0.0000E+00  0.0000E+00  0.6000E+01  0.6000E+01
     -7.886  0.0000E+00  0.0000E+00  0.6000E+01  0.6000E+01
     -7.758  0.0000E+00  0.0000E+00  0.6000E+01  0.6000E+01
     -7.629  0.0000E+00  0.0000E+00  0.6000E+01  0.6000E+01
     -7.500  0.0000E+00  0.0000E+00  0.6000E+01  0.6000E+01
     -7.372  0.0000E+00  0.0000E+00  0.6000E+01  0.6000E+01
     -7.243  0.0000E+00  0.0000E+00  0.6000E+01  0.6000E+01
     -7.114  0.0000E+00  0.0000E+00  0.6000E+01  0.6000E+01
     -6.985  0.0000E+00  0.0000E+00  0.6000E+01  0.6000E+01
     -6.857  0.0000E+00  0.0000E+00  0.6000E+01  0.6000E+01
     -6.728  0.0000E+00  0.0000E+00  0.6000E+01  0.6000E+01
     -6.599  0.0000E+00  0.0000E+00  0.6000E+01  0.6000E+01
     -6.471  0.0000E+00  0.0000E+00  0.6000E+01  0.6000E+01
     -6.342  0.0000E+00  0.0000E+00  0.6000E+01  0.6000E+01
     -6.213  0.0000E+00  0.0000E+00  0.6000E+01  0.6000E+01
     -6.084  0.0000E+00  0.0000E+00  0.6000E+01  0.6000E+01
     -5.956  0.0000E+00  0.0000E+00  0.6000E+01  0.6000E+01
     -5.827  0.0000E+00  0.0000E+00  0.6000E+01  0.6000E+01
     -5.698  0.0000E+00  0.0000E+00  0.6000E+01  0.6000E+01
     -5.570  0.0000E+00  0.0000E+00  0.6000E+01  0.6000E+01
     -5.441  0.0000E+00  0.0000E+00  0.6000E+01  0.6000E+01
     -5.312  0.0000E+00  0.0000E+00  0.6000E+01  0.6000E+01
     -5.183  0.0000E+00  0.0000E+00  0.6000E+01  0.6000E+01
     -5.055  0.0000E+00  0.0000E+00  0.6000E+01  0.6000E+01
     -4.926  0.0000E+00  0.0000E+00  0.6000E+01  0.6000E+01
     -4.797  0.0000E+00  0.0000E+00  0.6000E+01  0.6000E+01
     -4.669  0.0000E+00  0.0000E+00  0.6000E+01  0.6000E+01
     -4.540  0.0000E+00  0.0000E+00  0.6000E+01  0.6000E+01
     -4.411  0.0000E+00  0.0000E+00  0.6000E+01  0.6000E+01
     -4.282  0.0000E+00  0.0000E+00  0.6000E+01  0.6000E+01
     -4.154  0.2749E-06  0.2772E-06  0.6000E+01  0.6000E+01
     -4.025  0.2000E-04  0.2017E-04  0.6000E+01  0.6000E+01
     -3.896  0.2641E-03  0.2664E-03  0.6000E+01  0.6000E+01
     -3.768  0.3370E-02  0.3397E-02  0.6000E+01  0.6000E+01
     -3.639  0.3260E-01  0.3281E-01  0.6005E+01  0.6005E+01
     -3.510  0.1277E+00  0.1280E+00  0.6021E+01  0.6021E+01
     -3.381  0.2335E+00  0.2338E+00  0.6051E+01  0.6051E+01
     -3.253  0.2903E+00  0.2905E+00  0.6089E+01  0.6089E+01
     -3.124  0.3708E+00  0.3710E+00  0.6136E+01  0.6136E+01
     -2.995  0.4115E+00  0.4117E+00  0.6189E+01  0.6189E+01
     -2.867  0.4353E+00  0.4355E+00  0.6245E+01  0.6246E+01
     -2.738  0.5368E+00  0.5370E+00  0.6315E+01  0.6315E+01
     -2.609  0.5342E+00  0.5342E+00  0.6383E+01  0.6384E+01
     -2.480  0.5530E+00  0.5534E+00  0.6455E+01  0.6455E+01
     -2.352  0.6652E+00  0.6654E+00  0.6540E+01  0.6541E+01
     -2.223  0.6539E+00  0.6539E+00  0.6625E+01  0.6625E+01
     -2.094  0.7027E+00  0.7031E+00  0.6715E+01  0.6716E+01
     -1.966  0.7273E+00  0.7272E+00  0.6809E+01  0.6809E+01
     -1.837  0.7597E+00  0.7603E+00  0.6907E+01  0.6907E+01
     -1.708  0.9051E+00  0.9053E+00  0.7024E+01  0.7024E+01
     -1.579  0.8291E+00  0.8289E+00  0.7131E+01  0.7131E+01
     -1.451  0.8615E+00  0.8621E+00  0.7242E+01  0.7242E+01
     -1.322  0.9629E+00  0.9632E+00  0.7366E+01  0.7366E+01
     -1.193  0.1008E+01  0.1008E+01  0.7496E+01  0.7496E+01
     -1.065  0.1024E+01  0.1024E+01  0.7628E+01  0.7628E+01
     -0.936  0.1016E+01  0.1016E+01  0.7759E+01  0.7759E+01
     -0.807  0.1068E+01  0.1068E+01  0.7896E+01  0.7897E+01
     -0.678  0.1143E+01  0.1143E+01  0.8044E+01  0.8044E+01
     -0.550  0.1159E+01  0.1159E+01  0.8193E+01  0.8194E+01
     -0.421  0.1259E+01  0.1259E+01  0.8355E+01  0.8356E+01
     -0.292  0.1277E+01  0.1277E+01  0.8520E+01  0.8520E+01
     -0.163  0.1130E+01  0.1129E+01  0.8665E+01  0.8666E+01
     -0.035  0.1089E+01  0.1089E+01  0.8806E+01  0.8806E+01
      0.094  0.1007E+01  0.1006E+01  0.8936E+01  0.8936E+01
      0.223  0.1153E+01  0.1154E+01  0.9084E+01  0.9085E+01
      0.351  0.1271E+01  0.1271E+01  0.9248E+01  0.9249E+01
      0.480  0.1450E+01  0.1451E+01  0.9435E+01  0.9435E+01
      0.609  0.1581E+01  0.1581E+01  0.9639E+01  0.9639E+01
      0.738  0.1526E+01  0.1526E+01  0.9835E+01  0.9836E+01
      0.866  0.1387E+01  0.1386E+01  0.1001E+02  0.1001E+02
      0.995  0.1460E+01  0.1460E+01  0.1020E+02  0.1020E+02
      1.124  0.1518E+01  0.1518E+01  0.1040E+02  0.1040E+02
      1.252  0.1520E+01  0.1519E+01  0.1059E+02  0.1059E+02
      1.381  0.1311E+01  0.1310E+01  0.1076E+02  0.1076E+02
      1.510  0.1042E+01  0.1042E+01  0.1090E+02  0.1090E+02
      1.639  0.1031E+01  0.1032E+01  0.1103E+02  0.1103E+02
      1.767  0.1806E+01  0.1808E+01  0.1126E+02  0.1126E+02
      1.896  0.1606E+01  0.1603E+01  0.1147E+02  0.1147E+02
      2.025  0.1065E+01  0.1065E+01  0.1161E+02  0.1161E+02
      2.153  0.1267E+01  0.1267E+01  0.1177E+02  0.1177E+02
      2.282  0.1509E+01  0.1510E+01  0.1197E+02  0.1197E+02
      2.411  0.1555E+01  0.1556E+01  0.1217E+02  0.1217E+02
      2.540  0.1682E+01  0.1683E+01  0.1238E+02  0.1238E+02
      2.668  0.1806E+01  0.1807E+01  0.1262E+02  0.1262E+02
      2.797  0.1983E+01  0.1983E+01  0.1287E+02  0.1287E+02
      2.926  0.2111E+01  0.2111E+01  0.1314E+02  0.1314E+02
      3.054  0.1910E+01  0.1909E+01  0.1339E+02  0.1339E+02
      3.183  0.1692E+01  0.1691E+01  0.1361E+02  0.1361E+02
      3.312  0.1774E+01  0.1775E+01  0.1384E+02  0.1384E+02
      3.441  0.2008E+01  0.2008E+01  0.1409E+02  0.1410E+02
      3.569  0.2217E+01  0.2217E+01  0.1438E+02  0.1438E+02
      3.698  0.2493E+01  0.2493E+01  0.1470E+02  0.1470E+02
      3.827  0.3254E+01  0.3255E+01  0.1512E+02  0.1512E+02
      3.955  0.3526E+01  0.3524E+01  0.1558E+02  0.1558E+02
      4.084  0.2574E+01  0.2572E+01  0.1591E+02  0.1591E+02
      4.213  0.2113E+01  0.2112E+01  0.1618E+02  0.1618E+02
      4.342  0.2224E+01  0.2223E+01  0.1647E+02  0.1647E+02
      4.470  0.2406E+01  0.2405E+01  0.1678E+02  0.1678E+02
      4.599  0.2510E+01  0.2508E+01  0.1710E+02  0.1710E+02
      4.728  0.2730E+01  0.2728E+01  0.1745E+02  0.1745E+02
      4.856  0.2934E+01  0.2930E+01  0.1783E+02  0.1783E+02
      4.985  0.3438E+01  0.3435E+01  0.1827E+02  0.1827E+02
      5.114  0.2923E+01  0.2924E+01  0.1865E+02  0.1865E+02
      5.243  0.2478E+01  0.2479E+01  0.1897E+02  0.1897E+02
      5.371  0.1971E+01  0.1974E+01  0.1922E+02  0.1922E+02
      5.500  0.1620E+01  0.1623E+01  0.1943E+02  0.1943E+02
      5.629  0.1561E+01  0.1562E+01  0.1963E+02  0.1963E+02
      5.757  0.1377E+01  0.1378E+01  0.1981E+02  0.1981E+02
      5.886  0.1389E+01  0.1389E+01  0.1999E+02  0.1999E+02
      6.015  0.1767E+01  0.1766E+01  0.2022E+02  0.2022E+02
      6.144  0.2236E+01  0.2236E+01  0.2051E+02  0.2051E+02
      6.272  0.2254E+01  0.2256E+01  0.2080E+02  0.2080E+02
      6.401  0.2303E+01  0.2305E+01  0.2109E+02  0.2109E+02
      6.530  0.2394E+01  0.2395E+01  0.2140E+02  0.2140E+02
      6.658  0.2761E+01  0.2760E+01  0.2176E+02  0.2176E+02
      6.787  0.3456E+01  0.3455E+01  0.2220E+02  0.2220E+02
      6.916  0.3605E+01  0.3604E+01  0.2267E+02  0.2267E+02
      7.045  0.3888E+01  0.3887E+01  0.2317E+02  0.2317E+02
      7.173  0.3988E+01  0.3989E+01  0.2368E+02  0.2368E+02
      7.302  0.3578E+01  0.3579E+01  0.2415E+02  0.2414E+02
      7.431  0.3887E+01  0.3887E+01  0.2465E+02  0.2465E+02
      7.559  0.4561E+01  0.4563E+01  0.2523E+02  0.2523E+02
      7.688  0.3767E+01  0.3773E+01  0.2572E+02  0.2572E+02
      7.817  0.2670E+01  0.2669E+01  0.2606E+02  0.2606E+02
      7.946  0.2152E+01  0.2158E+01  0.2634E+02  0.2634E+02
      8.074  0.2355E+01  0.2389E+01  0.2665E+02  0.2665E+02
      8.203  0.2571E+01  0.2568E+01  0.2698E+02  0.2698E+02
      8.332  0.2293E+01  0.2309E+01  0.2727E+02  0.2728E+02
      8.460  0.1878E+01  0.1891E+01  0.2752E+02  0.2752E+02
      8.589  0.1576E+01  0.1547E+01  0.2772E+02  0.2772E+02
      8.718  0.1175E+01  0.1144E+01  0.2787E+02  0.2787E+02
      8.847  0.5792E+00  0.5714E+00  0.2795E+02  0.2795E+02
      8.975  0.1735E+00  0.1580E+00  0.2797E+02  0.2797E+02
      9.104  0.1307E+00  0.1214E+00  0.2799E+02  0.2798E+02
      9.233  0.9345E-01  0.1030E+00  0.2800E+02  0.2800E+02
      9.361  0.1982E-01  0.2898E-01  0.2800E+02  0.2800E+02
      9.490  0.1495E-02  0.4689E-02  0.2800E+02  0.2800E+02
      9.619  0.0000E+00  0.3537E-03  0.2800E+02  0.2800E+02
      9.748  0.0000E+00  0.0000E+00  0.2800E+02  0.2800E+02
      9.876  0.0000E+00  0.0000E+00  0.2800E+02  0.2800E+02
     10.005  0.0000E+00  0.0000E+00  0.2800E+02  0.2800E+02
     10.134  0.0000E+00  0.0000E+00  0.2800E+02  0.2800E+02
     10.262  0.0000E+00  0.0000E+00  0.2800E+02  0.2800E+02
     10.391  0.0000E+00  0.0000E+00  0.2800E+02  0.2800E+02
     10.520  0.0000E+00  0.0000E+00  0.2800E+02  0.2800E+02
     10.649  0.0000E+00  0.0000E+00  0.2800E+02  0.2800E+02
     10.777  0.0000E+00  0.0000E+00  0.2800E+02  0.2800E+02
     10.906  0.0000E+00  0.0000E+00  0.2800E+02  0.2800E+02
     11.035  0.0000E+00  0.0000E+00  0.2800E+02  0.2800E+02
     11.03472024    -27.57982160  301      5.25613070      1.00000000
    -27.580  0.0000E+00  0.0000E+00  0.0000E+00  0.0000E+00  0.0000E+00  0.0000E+00  0.0000E+00  0.0000E+00  0.0000E+00  0.0000E+00  0.0000E+00  0.0000E+00  0.0000E+00  0.0000E+00  0.0000E+00  0.0000E+00  0.0000E+00  0.0000E+00
    -27.451  0.0000E+00  0.0000E+00  0.0000E+00  0.0000E+00  0.0000E+00  0.0000E+00  0.0000E+00  0.0000E+00  0.0000E+00  0.0000E+00  0.0000E+00  0.0000E+00  0.0000E+00  0.0000E+00  0.0000E+00  0.0000E+00  0.0000E+00  0.0000E+00
    -27.322  0.0000E+00  0.0000E+00  0.0000E+00  0.0000E+00  0.0000E+00  0.0000E+00  0.0000E+00  0.0000E+00  0.0000E+00  0.0000E+00  0.0000E+00  0.0000E+00  0.0000E+00  0.0000E+00  0.0000E+00  0.0000E+00  0.0000E+00  0.0000E+00
    -27.194  0.0000E+00  0.0000E+00  0.0000E+00  0.0000E+00  0.0000E+00  0.0000E+00  0.0000E+00  0.0000E+00  0.0000E+00  0.0000E+00  0.0000E+00  0.0000E+00  0.0000E+00  0.0000E+00  0.0000E+00  0.0000E+00  0.0000E+00  0.0000E+00
    -27.065  0.0000E+00  0.0000E+00  0.0000E+00  0.0000E+00  0.0000E+00  0.0000E+00  0.0000E+00  0.0000E+00  0.0000E+00  0.0000E+00  0.0000E+00  0.0000E+00  0.0000E+00  0.0000E+00  0.0000E+00  0.0000E+00  0.0000E+00  0.0000E+00
    -26.936  0.0000E+00  0.0000E+00  0.0000E+00  0.0000E+00  0.0000E+00  0.0000E+00  0.0000E+00  0.0000E+00  0.0000E+00  0.0000E+00  0.0000E+00  0.0000E+00  0.0000E+00  0.0000E+00  0.0000E+00  0.0000E+00  0.0000E+00  0.0000E+00
    -26.808  0.0000E+00  0.0000E+00  0.0000E+00  0.0000E+00  0.0000E+00  0.0000E+00  0.0000E+00  0.0000E+00  0.0000E+00  0.0000E+00  0.0000E+00  0.0000E+00  0.0000E+00  0.0000E+00  0.0000E+00  0.0000E+00  0.0000E+00  0.0000E+00
    -26.679  0.0000E+00  0.0000E+00  0.0000E+00  0.0000E+00  0.0000E+00  0.0000E+00  0.0000E+00  0.0000E+00  0.0000E+00  0.0000E+00  0.0000E+00  0.0000E+00  0.0000E+00  0.0000E+00  0.0000E+00  0.0000E+00  0.0000E+00  0.0000E+00
    -26.550  0.0000E+00  0.0000E+00  0.0000E+00  0.0000E+00  0.0000E+00  0.0000E+00  0.0000E+00  0.0000E+00  0.0000E+00  0.0000E+00  0.0000E+00  0.0000E+00  0.0000E+00  0.0000E+00  0.0000E+00  0.0000E+00  0.0000E+00  0.0000E+00
    -26.421  0.0000E+00  0.0000E+00  0.0000E+00  0.0000E+00  0.0000E+00  0.0000E+00  0.0000E+00  0.0000E+00  0.0000E+00  0.0000E+00  0.0000E+00  0.0000E+00  0.0000E+00  0.0000E+00  0.0000E+00  0.0000E+00  0.0000E+00  0.0000E+00
    -26.293  0.5666E-10  0.5675E-10  0.5750E-03  0.5764E-03  0.4363E-08  0.4336E-08  0.5750E-03  0.5764E-03  0.2521E-11  0.2510E-11  0.1392E-12  0.1358E-12  0.2204E-10  0.2208E-10  0.1392E-12  0.1358E-12  0.6526E-10  0.6538E-10
    -26.164  0.6867E-09  0.6878E-09  0.6964E-02  0.6980E-02  0.5808E-03  0.5759E-03  0.6964E-02  0.6980E-02  0.3059E-10  0.3046E-10  0.3240E-11  0.3166E-11  0.2671E-09  0.2675E-09  0.3240E-11  0.3166E-11  0.7903E-09  0.7918E-09
    -26.035  0.8896E-08  0.8909E-08  0.9021E-01  0.9042E-01  0.7034E-02  0.6974E-02  0.9021E-01  0.9042E-01  0.3961E-09  0.3944E-09  0.4065E-10  0.3972E-10  0.3460E-08  0.3466E-08  0.4065E-10  0.3972E-10  0.1024E-07  0.1026E-07
    -25.907  0.9979E-07  0.9991E-07  0.1011E+01  0.1013E+01  0.9111E-01  0.9035E-01  0.1011E+01  0.1013E+01  0.4431E-08  0.4410E-08  0.4873E-09  0.4762E-09  0.3881E-07  0.3886E-07  0.4873E-09  0.4762E-09  0.1149E-06  0.1151E-06
    -25.778  0.4103E-06  0.4101E-06  0.4151E+01  0.4152E+01  0.1021E+01  0.1014E+01  0.4151E+01  0.4152E+01  0.1803E-07  0.1791E-07  0.3705E-08  0.3626E-08  0.1595E-06  0.1594E-06  0.3705E-08  0.3626E-08  0.4725E-06  0.4724E-06
    -25.649  0.2115E-06  0.2110E-06  0.2111E+01  0.2108E+01  0.4163E+01  0.4157E+01  0.2111E+01  0.2108E+01  0.9453E-08  0.9354E-08  0.1157E-07  0.1141E-07  0.8184E-07  0.8162E-07  0.1157E-07  0.1141E-07  0.2402E-06  0.2397E-06
    -25.520  0.2478E-07  0.2473E-07  0.2331E+00  0.2325E+00  0.2089E+01  0.2101E+01  0.2331E+00  0.2325E+00  0.1230E-08  0.1211E-08  0.5597E-08  0.5560E-08  0.9435E-08  0.9390E-08  0.5597E-08  0.5560E-08  0.2650E-07  0.2642E-07
    -25.392  0.2067E-09  0.2103E-09  0.8497E-06  0.8497E-06  0.2291E+00  0.2310E+00  0.8497E-06  0.8497E-06  0.2700E-10  0.2602E-10  0.6071E-09  0.6047E-09  0.5836E-10  0.5650E-10  0.6071E-09  0.6047E-09  0.1849E-12  0.2324E-12
    -25.263  0.0000E+00  0.0000E+00  0.0000E+00  0.0000E+00  0.0000E+00  0.0000E+00  0.0000E+00  0.0000E+00  0.0000E+00  0.0000E+00  0.0000E+00  0.0000E+00  0.0000E+00  0.0000E+00  0.0000E+00  0.0000E+00  0.0000E+00  0.0000E+00
    -25.134  0.0000E+00  0.0000E+00  0.0000E+00  0.0000E+00  0.0000E+00  0.0000E+00  0.0000E+00  0.0000E+00  0.0000E+00  0.0000E+00  0.0000E+00  0.0000E+00  0.0000E+00  0.0000E+00  0.0000E+00  0.0000E+00  0.0000E+00  0.0000E+00
    -25.006  0.0000E+00  0.0000E+00  0.0000E+00  0.0000E+00  0.0000E+00  0.0000E+00  0.0000E+00  0.0000E+00  0.0000E+00  0.0000E+00  0.0000E+00  0.0000E+00  0.0000E+00  0.0000E+00  0.0000E+00  0.0000E+00  0.0000E+00  0.0000E+00
    -24.877  0.0000E+00  0.0000E+00  0.0000E+00  0.0000E+00  0.0000E+00  0.0000E+00  0.0000E+00  0.0000E+00  0.0000E+00  0.0000E+00  0.0000E+00  0.0000E+00  0.0000E+00  0.0000E+00  0.0000E+00  0.0000E+00  0.0000E+00  0.0000E+00
    -24.748  0.0000E+00  0.0000E+00  0.0000E+00  0.0000E+00  0.0000E+00  0.0000E+00  0.0000E+00  0.0000E+00  0.0000E+00  0.0000E+00  0.0000E+00  0.0000E+00  0.0000E+00  0.0000E+00  0.0000E+00  0.0000E+00  0.0000E+00  0.0000E+00
    -24.619  0.0000E+00  0.0000E+00  0.0000E+00  0.0000E+00  0.0000E+00  0.0000E+00  0.0000E+00  0.0000E+00  0.0000E+00  0.0000E+00  0.0000E+00  0.0000E+00  0.0000E+00  0.0000E+00  0.0000E+00  0.0000E+00  0.0000E+00  0.0000E+00
    -24.491  0.0000E+00  0.0000E+00  0.0000E+00  0.0000E+00  0.0000E+00  0.0000E+00  0.0000E+00  0.0000E+00  0.0000E+00  0.0000E+00  0.0000E+00  0.0000E+00  0.0000E+00  0.0000E+00  0.0000E+00  0.0000E+00  0.0000E+00  0.0000E+00
    -24.362  0.0000E+00  0.0000E+00  0.0000E+00  0.0000E+00  0.0000E+00  0.0000E+00  0.0000E+00  0.0000E+00  0.0000E+00  0.0000E+00  0.0000E+00  0.0000E+00  0.0000E+00  0.0000E+00  0.0000E+00  0.0000E+00  0.0000E+00  0.0000E+00
    -24.233  0.0000E+00  0.0000E+00  0.0000E+00  0.0000E+00  0.0000E+00  0.0000E+00  0.0000E+00  0.0000E+00  0.0000E+00  0.0000E+00  0.0000E+00  0.0000E+00  0.0000E+00  0.0000E+00  0.0000E+00  0.0000E+00  0.0000E+00  0.0000E+00
    -24.105  0.0000E+00  0.0000E+00  0.0000E+00  0.0000E+00  0.0000E+00  0.0000E+00  0.0000E+00  0.0000E+00  0.0000E+00  0.0000E+00  0.0000E+00  0.0000E+00  0.0000E+00  0.0000E+00  0.0000E+00  0.0000E+00  0.0000E+00  0.0000E+00
    -23.976  0.0000E+00  0.0000E+00  0.0000E+00  0.0000E+00  0.0000E+00  0.0000E+00  0.0000E+00  0.0000E+00  0.0000E+00  0.0000E+00  0.0000E+00  0.0000E+00  0.0000E+00  0.0000E+00  0.0000E+00  0.0000E+00  0.0000E+00  0.0000E+00
    -23.847  0.0000E+00  0.0000E+00  0.0000E+00  0.0000E+00  0.0000E+00  0.0000E+00  0.0000E+00  0.0000E+00  0.0000E+00  0.0000E+00  0.0000E+00  0.0000E+00  0.0000E+00  0.0000E+00  0.0000E+00  0.0000E+00  0.0000E+00  0.0000E+00
    -23.718  0.0000E+00  0.0000E+00  0.0000E+00  0.0000E+00  0.0000E+00  0.0000E+00  0.0000E+00  0.0000E+00  0.0000E+00  0.0000E+00  0.0000E+00  0.0000E+00  0.0000E+00  0.0000E+00  0.0000E+00  0.0000E+00  0.0000E+00  0.0000E+00
    -23.590  0.0000E+00  0.0000E+00  0.0000E+00  0.0000E+00  0.0000E+00  0.0000E+00  0.0000E+00  0.0000E+00  0.0000E+00  0.0000E+00  0.0000E+00  0.0000E+00  0.0000E+00  0.0000E+00  0.0000E+00  0.0000E+00  0.0000E+00  0.0000E+00
    -23.461  0.0000E+00  0.0000E+00  0.0000E+00  0.0000E+00  0.0000E+00  0.0000E+00  0.0000E+00  0.0000E+00  0.0000E+00  0.0000E+00  0.0000E+00  0.0000E+00  0.0000E+00  0.0000E+00  0.0000E+00  0.0000E+00  0.0000E+00  0.0000E+00
    -23.332  0.0000E+00  0.0000E+00  0.0000E+00  0.0000E+00  0.0000E+00  0.0000E+00  0.0000E+00  0.0000E+00  0.0000E+00  0.0000E+00  0.0000E+00  0.0000E+00  0.0000E+00  0.0000E+00  0.0000E+00  0.0000E+00  0.0000E+00  0.0000E+00
    -23.204  0.0000E+00  0.0000E+00  0.0000E+00  0.0000E+00  0.0000E+00  0.0000E+00  0.0000E+00  0.0000E+00  0.0000E+00  0.0000E+00  0.0000E+00  0.0000E+00  0.0000E+00  0.0000E+00  0.0000E+00  0.0000E+00  0.0000E+00  0.0000E+00
    -23.075  0.0000E+00  0.0000E+00  0.0000E+00  0.0000E+00  0.0000E+00  0.0000E+00  0.0000E+00  0.0000E+00  0.0000E+00  0.0000E+00  0.0000E+00  0.0000E+00  0.0000E+00  0.0000E+00  0.0000E+00  0.0000E+00  0.0000E+00  0.0000E+00
    -22.946  0.0000E+00  0.0000E+00  0.0000E+00  0.0000E+00  0.0000E+00  0.0000E+00  0.0000E+00  0.0000E+00  0.0000E+00  0.0000E+00  0.0000E+00  0.0000E+00  0.0000E+00  0.0000E+00  0.0000E+00  0.0000E+00  0.0000E+00  0.0000E+00
    -22.817  0.0000E+00  0.0000E+00  0.0000E+00  0.0000E+00  0.0000E+00  0.0000E+00  0.0000E+00  0.0000E+00  0.0000E+00  0.0000E+00  0.0000E+00  0.0000E+00  0.0000E+00  0.0000E+00  0.0000E+00  0.0000E+00  0.0000E+00  0.0000E+00
    -22.689  0.0000E+00  0.0000E+00  0.0000E+00  0.0000E+00  0.0000E+00  0.0000E+00  0.0000E+00  0.0000E+00  0.0000E+00  0.0000E+00  0.0000E+00  0.0000E+00  0.0000E+00  0.0000E+00  0.0000E+00  0.0000E+00  0.0000E+00  0.0000E+00
    -22.560  0.0000E+00  0.0000E+00  0.0000E+00  0.0000E+00  0.0000E+00  0.0000E+00  0.0000E+00  0.0000E+00  0.0000E+00  0.0000E+00  0.0000E+00  0.0000E+00  0.0000E+00  0.0000E+00  0.0000E+00  0.0000E+00  0.0000E+00  0.0000E+00
    -22.431  0.0000E+00  0.0000E+00  0.0000E+00  0.0000E+00  0.0000E+00  0.0000E+00  0.0000E+00  0.0000E+00  0.0000E+00  0.0000E+00  0.0000E+00  0.0000E+00  0.0000E+00  0.0000E+00  0.0000E+00  0.0000E+00  0.0000E+00  0.0000E+00
    -22.303  0.0000E+00  0.0000E+00  0.0000E+00  0.0000E+00  0.0000E+00  0.0000E+00  0.0000E+00  0.0000E+00  0.0000E+00  0.0000E+00  0.0000E+00  0.0000E+00  0.0000E+00  0.0000E+00  0.0000E+00  0.0000E+00  0.0000E+00  0.0000E+00
    -22.174  0.0000E+00  0.0000E+00  0.0000E+00  0.0000E+00  0.0000E+00  0.0000E+00  0.0000E+00  0.0000E+00  0.0000E+00  0.0000E+00  0.0000E+00  0.0000E+00  0.0000E+00  0.0000E+00  0.0000E+00  0.0000E+00  0.0000E+00  0.0000E+00
    -22.045  0.0000E+00  0.0000E+00  0.0000E+00  0.0000E+00  0.0000E+00  0.0000E+00  0.0000E+00  0.0000E+00  0.0000E+00  0.0000E+00  0.0000E+00  0.0000E+00  0.0000E+00  0.0000E+00  0.0000E+00  0.0000E+00  0.0000E+00  0.0000E+00
    -21.916  0.0000E+00  0.0000E+00  0.0000E+00  0.0000E+00  0.0000E+00  0.0000E+00  0.0000E+00  0.0000E+00  0.0000E+00  0.0000E+00  0.0000E+00  0.0000E+00  0.0000E+00  0.0000E+00  0.0000E+00  0.0000E+00  0.0000E+00  0.0000E+00
    -21.788  0.0000E+00  0.0000E+00  0.0000E+00  0.0000E+00  0.0000E+00  0.0000E+00  0.0000E+00  0.0000E+00  0.0000E+00  0.0000E+00  0.0000E+00  0.0000E+00  0.0000E+00  0.0000E+00  0.0000E+00  0.0000E+00  0.0000E+00  0.0000E+00
    -21.659  0.0000E+00  0.0000E+00  0.0000E+00  0.0000E+00  0.0000E+00  0.0000E+00  0.0000E+00  0.0000E+00  0.0000E+00  0.0000E+00  0.0000E+00  0.0000E+00  0.0000E+00  0.0000E+00  0.0000E+00  0.0000E+00  0.0000E+00  0.0000E+00
    -21.530  0.0000E+00  0.0000E+00  0.0000E+00  0.0000E+00  0.0000E+00  0.0000E+00  0.0000E+00  0.0000E+00  0.0000E+00  0.0000E+00  0.0000E+00  0.0000E+00  0.0000E+00  0.0000E+00  0.0000E+00  0.0000E+00  0.0000E+00  0.0000E+00
    -21.401  0.0000E+00  0.0000E+00  0.0000E+00  0.0000E+00  0.0000E+00  0.0000E+00  0.0000E+00  0.0000E+00  0.0000E+00  0.0000E+00  0.0000E+00  0.0000E+00  0.0000E+00  0.0000E+00  0.0000E+00  0.0000E+00  0.0000E+00  0.0000E+00
    -21.273  0.0000E+00  0.0000E+00  0.0000E+00  0.0000E+00  0.0000E+00  0.0000E+00  0.0000E+00  0.0000E+00  0.0000E+00  0.0000E+00  0.0000E+00  0.0000E+00  0.0000E+00  0.0000E+00  0.0000E+00  0.0000E+00  0.0000E+00  0.0000E+00
    -21.144  0.0000E+00  0.0000E+00  0.0000E+00  0.0000E+00  0.0000E+00  0.0000E+00  0.0000E+00  0.0000E+00  0.0000E+00  0.0000E+00  0.0000E+00  0.0000E+00  0.0000E+00  0.0000E+00  0.0000E+00  0.0000E+00  0.0000E+00  0.0000E+00