   4   4   1   0
  0.2131080E+02  0.4401019E-09  0.4401019E-09  0.4401019E-09  0.5000000E-15
  1.000000000000000E-004
  CAR 
 unknown system                          
     16.05713780     -1.18493156  301      5.69562834      1.00000000
     -1.185  0.0000E+00  0.0000E+00  0.0000E+00  0.0000E+00
     -1.127  0.0000E+00  0.0000E+00  0.0000E+00  0.0000E+00
     -1.070  0.0000E+00  0.0000E+00  0.0000E+00  0.0000E+00
     -1.013  0.0000E+00  0.0000E+00  0.0000E+00  0.0000E+00
     -0.955  0.0000E+00  0.0000E+00  0.0000E+00  0.0000E+00
     -0.898  0.0000E+00  0.0000E+00  0.0000E+00  0.0000E+00
     -0.840  0.9930E-04  0.9858E-04  0.5707E-05  0.5666E-05
     -0.783  0.2140E-03  0.2125E-03  0.1801E-04  0.1788E-04
     -0.725  0.6747E-03  0.6698E-03  0.5679E-04  0.5637E-04
     -0.668  0.2120E-02  0.2105E-02  0.1787E-03  0.1774E-03
     -0.610  0.6603E-02  0.6555E-02  0.5581E-03  0.5541E-03
     -0.553  0.1998E-01  0.1984E-01  0.1706E-02  0.1694E-02
     -0.495  0.5555E-01  0.5522E-01  0.4899E-02  0.4868E-02
     -0.438  0.1241E+00  0.1236E+00  0.1203E-01  0.1197E-01
     -0.380  0.1796E+00  0.1795E+00  0.2235E-01  0.2229E-01
     -0.323  0.1454E+00  0.1458E+00  0.3071E-01  0.3067E-01
     -0.265  0.7365E-01  0.7403E-01  0.3494E-01  0.3492E-01
     -0.208  0.3420E-01  0.3433E-01  0.3691E-01  0.3690E-01
     -0.150  0.3217E-01  0.3207E-01  0.3876E-01  0.3874E-01
     -0.093  0.7260E-01  0.7215E-01  0.4293E-01  0.4289E-01
     -0.035  0.1911E+00  0.1900E+00  0.5391E-01  0.5381E-01
      0.022  0.4052E+00  0.4038E+00  0.7723E-01  0.7704E-01
      0.079  0.5424E+00  0.5424E+00  0.1084E+00  0.1082E+00
      0.137  0.4088E+00  0.4102E+00  0.1319E+00  0.1318E+00
      0.194  0.2069E+00  0.2079E+00  0.1438E+00  0.1437E+00
      0.252  0.1261E+00  0.1263E+00  0.1510E+00  0.1510E+00
      0.309  0.1885E+00  0.1876E+00  0.1619E+00  0.1618E+00
      0.367  0.4193E+00  0.4180E+00  0.1860E+00  0.1858E+00
      0.424  0.7791E+00  0.7780E+00  0.2307E+00  0.2305E+00
      0.482  0.1163E+01  0.1163E+01  0.2976E+00  0.2974E+00
      0.539  0.1800E+01  0.1799E+01  0.4011E+00  0.4008E+00
      0.597  0.2782E+01  0.2781E+01  0.5610E+00  0.5606E+00
      0.654  0.4019E+01  0.4016E+01  0.7920E+00  0.7914E+00
      0.712  0.5734E+01  0.5730E+01  0.1122E+01  0.1121E+01
      0.769  0.7526E+01  0.7524E+01  0.1554E+01  0.1553E+01
      0.827  0.8703E+01  0.8702E+01  0.2054E+01  0.2053E+01
      0.884  0.9058E+01  0.9057E+01  0.2575E+01  0.2574E+01
      0.942  0.8965E+01  0.8966E+01  0.3090E+01  0.3089E+01
      0.999  0.9070E+01  0.9071E+01  0.3612E+01  0.3611E+01
      1.057  0.8506E+01  0.8508E+01  0.4101E+01  0.4100E+01
      1.114  0.7405E+01  0.7407E+01  0.4526E+01  0.4526E+01
      1.171  0.6856E+01  0.6856E+01  0.4921E+01  0.4920E+01
      1.229  0.6844E+01  0.6843E+01  0.5314E+01  0.5314E+01
      1.286  0.6962E+01  0.6962E+01  0.5715E+01  0.5714E+01
      1.344  0.7136E+01  0.7137E+01  0.6125E+01  0.6125E+01
      1.401  0.7790E+01  0.7793E+01  0.6574E+01  0.6573E+01
      1.459  0.8263E+01  0.8265E+01  0.7049E+01  0.7048E+01
      1.516  0.7787E+01  0.7789E+01  0.7496E+01  0.7496E+01
      1.574  0.7569E+01  0.7569E+01  0.7932E+01  0.7931E+01
      1.631  0.8911E+01  0.8910E+01  0.8444E+01  0.8444E+01
      1.689  0.1093E+02  0.1093E+02  0.9073E+01  0.9072E+01
      1.746  0.1202E+02  0.1202E+02  0.9764E+01  0.9763E+01
      1.804  0.1118E+02  0.1117E+02  0.1041E+02  0.1041E+02
      1.861  0.9601E+01  0.9601E+01  0.1096E+02  0.1096E+02
      1.919  0.8643E+01  0.8644E+01  0.1146E+02  0.1146E+02
      1.976  0.8027E+01  0.8027E+01  0.1192E+02  0.1192E+02
      2.034  0.7673E+01  0.7672E+01  0.1236E+02  0.1236E+02
      2.091  0.7941E+01  0.7940E+01  0.1281E+02  0.1281E+02
      2.149  0.8902E+01  0.8901E+01  0.1333E+02  0.1333E+02
      2.206  0.1001E+02  0.1001E+02  0.1390E+02  0.1390E+02
      2.263  0.1042E+02  0.1042E+02  0.1450E+02  0.1450E+02
      2.321  0.1005E+02  0.1005E+02  0.1508E+02  0.1508E+02
      2.378  0.8912E+01  0.8913E+01  0.1559E+02  0.1559E+02
      2.436  0.8043E+01  0.8044E+01  0.1605E+02  0.1605E+02
      2.493  0.8241E+01  0.8241E+01  0.1653E+02  0.1653E+02
      2.551  0.8490E+01  0.8491E+01  0.1702E+02  0.1702E+02
      2.608  0.8247E+01  0.8248E+01  0.1749E+02  0.1749E+02
      2.666  0.8315E+01  0.8317E+01  0.1797E+02  0.1797E+02
      2.723  0.9609E+01  0.9610E+01  0.1852E+02  0.1852E+02
      2.781  0.1045E+02  0.1045E+02  0.1912E+02  0.1912E+02
      2.838  0.9359E+01  0.9360E+01  0.1966E+02  0.1966E+02
      2.896  0.7423E+01  0.7423E+01  0.2009E+02  0.2009E+02
      2.953  0.5319E+01  0.5318E+01  0.2039E+02  0.2039E+02
      3.011  0.3176E+01  0.3176E+01  0.2058E+02  0.2058E+02
      3.068  0.1662E+01  0.1662E+01  0.2067E+02  0.2067E+02
      3.126  0.7558E+00  0.7569E+00  0.2072E+02  0.2072E+02
      3.183  0.3055E+00  0.3060E+00  0.2074E+02  0.2074E+02
      3.241  0.1758E+00  0.1757E+00  0.2075E+02  0.2075E+02
      3.298  0.2473E+00  0.2465E+00  0.2076E+02  0.2076E+02
      3.355  0.4486E+00  0.4478E+00  0.2079E+02  0.2079E+02
      3.413  0.5381E+00  0.5383E+00  0.2082E+02  0.2082E+02
      3.470  0.3646E+00  0.3656E+00  0.2084E+02  0.2084E+02
      3.528  0.1662E+00  0.1668E+00  0.2085E+02  0.2085E+02
      3.585  0.7464E-01  0.7483E-01  0.2085E+02  0.2085E+02
      3.643  0.7214E-01  0.7203E-01  0.2086E+02  0.2086E+02
      3.700  0.1586E+00  0.1581E+00  0.2086E+02  0.2086E+02
      3.758  0.3735E+00  0.3725E+00  0.2089E+02  0.2089E+02
      3.815  0.6539E+00  0.6529E+00  0.2092E+02  0.2092E+02
      3.873  0.8013E+00  0.8006E+00  0.2097E+02  0.2097E+02
      3.930  0.8530E+00  0.8525E+00  0.2102E+02  0.2102E+02
      3.988  0.8601E+00  0.8602E+00  0.2107E+02  0.2107E+02
      4.045  0.9502E+00  0.9496E+00  0.2112E+02  0.2112E+02
      4.103  0.1161E+01  0.1161E+01  0.2119E+02  0.2119E+02
      4.160  0.1003E+01  0.1005E+01  0.2125E+02  0.2125E+02
      4.218  0.5363E+00  0.5381E+00  0.2128E+02  0.2128E+02
      4.275  0.2165E+00  0.2174E+00  0.2129E+02  0.2129E+02
      4.333  0.9461E-01  0.9477E-01  0.2130E+02  0.2130E+02
      4.390  0.9726E-01  0.9694E-01  0.2130E+02  0.2130E+02
      4.447  0.2112E+00  0.2102E+00  0.2131E+02  0.2131E+02
      4.505  0.4402E+00  0.4388E+00  0.2134E+02  0.2134E+02
      4.562  0.6212E+00  0.6207E+00  0.2138E+02  0.2138E+02
      4.620  0.5526E+00  0.5531E+00  0.2141E+02  0.2141E+02
      4.677  0.3611E+00  0.3622E+00  0.2143E+02  0.2143E+02
      4.735  0.1815E+00  0.1826E+00  0.2144E+02  0.2144E+02
      4.792  0.7278E-01  0.7333E-01  0.2144E+02  0.2144E+02
      4.850  0.3022E-01  0.3040E-01  0.2144E+02  0.2144E+02
      4.907  0.2642E-01  0.2638E-01  0.2145E+02  0.2145E+02
      4.965  0.5941E-01  0.5910E-01  0.2145E+02  0.2145E+02
      5.022  0.1756E+00  0.1747E+00  0.2146E+02  0.2146E+02
      5.080  0.4880E+00  0.4857E+00  0.2149E+02  0.2149E+02
      5.137  0.1100E+01  0.1097E+01  0.2155E+02  0.2155E+02
      5.195  0.1618E+01  0.1618E+01  0.2164E+02  0.2164E+02
      5.252  0.1354E+01  0.1357E+01  0.2172E+02  0.2172E+02
      5.310  0.7637E+00  0.7658E+00  0.2177E+02  0.2177E+02
      5.367  0.5454E+00  0.5448E+00  0.2180E+02  0.2180E+02
      5.425  0.7720E+00  0.7694E+00  0.2184E+02  0.2184E+02
      5.482  0.1088E+01  0.1087E+01  0.2190E+02  0.2190E+02
      5.539  0.9274E+00  0.9301E+00  0.2196E+02  0.2196E+02
      5.597  0.4787E+00  0.4813E+00  0.2198E+02  0.2198E+02
      5.654  0.1943E+00  0.1955E+00  0.2200E+02  0.2200E+02
      5.712  0.9991E-01  0.1001E+00  0.2200E+02  0.2200E+02
      5.769  0.1369E+00  0.1363E+00  0.2201E+02  0.2201E+02
      5.827  0.3400E+00  0.3379E+00  0.2203E+02  0.2203E+02
      5.884  0.7965E+00  0.7926E+00  0.2207E+02  0.2207E+02
      5.942  0.1335E+01  0.1331E+01  0.2215E+02  0.2215E+02
      5.999  0.1411E+01  0.1411E+01  0.2223E+02  0.2223E+02
      6.057  0.9865E+00  0.9903E+00  0.2229E+02  0.2229E+02
      6.114  0.4857E+00  0.4894E+00  0.2232E+02  0.2232E+02
      6.172  0.1877E+00  0.1896E+00  0.2233E+02  0.2233E+02
      6.229  0.6822E-01  0.6888E-01  0.2233E+02  0.2233E+02
      6.287  0.3638E-01  0.3651E-01  0.2233E+02  0.2233E+02
      6.344  0.5341E-01  0.5316E-01  0.2234E+02  0.2234E+02
      6.402  0.1440E+00  0.1431E+00  0.2235E+02  0.2235E+02
      6.459  0.3575E+00  0.3559E+00  0.2237E+02  0.2237E+02
      6.517  0.6640E+00  0.6625E+00  0.2240E+02  0.2240E+02
      6.574  0.8473E+00  0.8471E+00  0.2245E+02  0.2245E+02
      6.631  0.8309E+00  0.8316E+00  0.2250E+02  0.2250E+02
      6.689  0.6392E+00  0.6400E+00  0.2254E+02  0.2254E+02
      6.746  0.4732E+00  0.4726E+00  0.2256E+02  0.2256E+02
      6.804  0.5302E+00  0.5284E+00  0.2260E+02  0.2259E+02
      6.861  0.6200E+00  0.6201E+00  0.2263E+02  0.2263E+02
      6.919  0.5401E+00  0.5416E+00  0.2266E+02  0.2266E+02
      6.976  0.5601E+00  0.5601E+00  0.2269E+02  0.2269E+02
      7.034  0.8812E+00  0.8794E+00  0.2274E+02  0.2274E+02
      7.091  0.1162E+01  0.1162E+01  0.2281E+02  0.2281E+02
      7.149  0.9917E+00  0.9925E+00  0.2287E+02  0.2287E+02
      7.206  0.7664E+00  0.7658E+00  0.2291E+02  0.2291E+02
      7.264  0.7155E+00  0.7153E+00  0.2295E+02  0.2295E+02
      7.321  0.5996E+00  0.6009E+00  0.2299E+02  0.2299E+02
      7.379  0.5476E+00  0.5470E+00  0.2302E+02  0.2302E+02
      7.436  0.8007E+00  0.7976E+00  0.2307E+02  0.2307E+02
      7.494  0.1096E+01  0.1095E+01  0.2313E+02  0.2313E+02
      7.551  0.9055E+00  0.9091E+00  0.2318E+02  0.2318E+02
      7.609  0.4567E+00  0.4601E+00  0.2321E+02  0.2321E+02
      7.666  0.1734E+00  0.1750E+00  0.2322E+02  0.2322E+02
      7.723  0.6047E-01  0.6100E-01  0.2322E+02  0.2322E+02
      7.781  0.2632E-01  0.2644E-01  0.2322E+02  0.2322E+02
      7.838  0.2963E-01  0.2947E-01  0.2322E+02  0.2322E+02
      7.896  0.7277E-01  0.7212E-01  0.2323E+02  0.2323E+02
      7.953  0.2126E+00  0.2108E+00  0.2324E+02  0.2324E+02
      8.011  0.5372E+00  0.5337E+00  0.2327E+02  0.2327E+02
      8.068  0.9743E+00  0.9715E+00  0.2333E+02  0.2333E+02
      8.126  0.1031E+01  0.1033E+01  0.2339E+02  0.2339E+02
      8.183  0.6260E+00  0.6296E+00  0.2342E+02  0.2342E+02
      8.241  0.2777E+00  0.2797E+00  0.2344E+02  0.2344E+02
      8.298  0.1561E+00  0.1567E+00  0.2345E+02  0.2345E+02
      8.356  0.2294E+00  0.2290E+00  0.2346E+02  0.2346E+02
      8.413  0.5486E+00  0.5474E+00  0.2349E+02  0.2349E+02
      8.471  0.1134E+01  0.1133E+01  0.2356E+02  0.2356E+02
      8.528  0.1542E+01  0.1543E+01  0.2365E+02  0.2365E+02
      8.586  0.1286E+01  0.1288E+01  0.2372E+02  0.2372E+02
      8.643  0.7670E+00  0.7671E+00  0.2376E+02  0.2376E+02
      8.701  0.5576E+00  0.5566E+00  0.2380E+02  0.2380E+02
      8.758  0.7593E+00  0.7578E+00  0.2384E+02  0.2384E+02
      8.815  0.1052E+01  0.1052E+01  0.2390E+02  0.2390E+02
      8.873  0.9467E+00  0.9483E+00  0.2395E+02  0.2395E+02
      8.930  0.5720E+00  0.5731E+00  0.2399E+02  0.2399E+02
      8.988  0.3912E+00  0.3916E+00  0.2401E+02  0.2401E+02
      9.045  0.5609E+00  0.5610E+00  0.2404E+02  0.2404E+02
      9.103  0.9767E+00  0.9765E+00  0.2410E+02  0.2410E+02
      9.160  0.1154E+01  0.1154E+01  0.2417E+02  0.2416E+02
      9.218  0.9402E+00  0.9389E+00  0.2422E+02  0.2422E+02
      9.275  0.9148E+00  0.9124E+00  0.2427E+02  0.2427E+02
      9.333  0.1134E+01  0.1133E+01  0.2434E+02  0.2434E+02
      9.390  0.1005E+01  0.1007E+01  0.2439E+02  0.2439E+02
      9.448  0.5451E+00  0.5474E+00  0.2443E+02  0.2443E+02
      9.505  0.2168E+00  0.2179E+00  0.2444E+02  0.2444E+02
      9.563  0.7923E-01  0.7964E-01  0.2444E+02  0.2444E+02
      9.620  0.4526E-01  0.4534E-01  0.2445E+02  0.2445E+02
      9.678  0.7061E-01  0.7048E-01  0.2445E+02  0.2445E+02
      9.735  0.1590E+00  0.1586E+00  0.2446E+02  0.2446E+02
      9.793  0.3112E+00  0.3104E+00  0.2448E+02  0.2448E+02
      9.850  0.5247E+00  0.5229E+00  0.2451E+02  0.2451E+02
      9.907  0.8929E+00  0.8903E+00  0.2456E+02  0.2456E+02
      9.965  0.1195E+01  0.1195E+01  0.2463E+02  0.2463E+02
     10.022  0.1083E+01  0.1085E+01  0.2469E+02  0.2469E+02
     10.080  0.1023E+01  0.1024E+01  0.2475E+02  0.2475E+02
     10.137  0.1327E+01  0.1327E+01  0.2482E+02  0.2482E+02
     10.195  0.1478E+01  0.1479E+01  0.2491E+02  0.2491E+02
     10.252  0.1159E+01  0.1160E+01  0.2498E+02  0.2498E+02
     10.310  0.6499E+00  0.6505E+00  0.2501E+02  0.2501E+02
     10.367  0.2714E+00  0.2717E+00  0.2503E+02  0.2503E+02
     10.425  0.1001E+00  0.1002E+00  0.2503E+02  0.2503E+02
     10.482  0.4608E-01  0.4608E-01  0.2504E+02  0.2504E+02
     10.540  0.5602E-01  0.5592E-01  0.2504E+02  0.2504E+02
     10.597  0.1420E+00  0.1416E+00  0.2505E+02  0.2505E+02
     10.655  0.3881E+00  0.3874E+00  0.2507E+02  0.2507E+02
     10.712  0.8752E+00  0.8740E+00  0.2512E+02  0.2512E+02
     10.770  0.1342E+01  0.1341E+01  0.2520E+02  0.2520E+02
     10.827  0.1349E+01  0.1350E+01  0.2528E+02  0.2528E+02
     10.885  0.1042E+01  0.1042E+01  0.2534E+02  0.2534E+02
     10.942  0.7634E+00  0.7631E+00  0.2538E+02  0.2538E+02
     10.999  0.6895E+00  0.6891E+00  0.2542E+02  0.2542E+02
     11.057  0.5793E+00  0.5801E+00  0.2545E+02  0.2545E+02
     11.114  0.3421E+00  0.3432E+00  0.2547E+02  0.2547E+02
     11.172  0.2037E+00  0.2040E+00  0.2548E+02  0.2548E+02
     11.229  0.2703E+00  0.2697E+00  0.2550E+02  0.2550E+02
     11.287  0.5854E+00  0.5839E+00  0.2553E+02  0.2553E+02
     11.344  0.1044E+01  0.1043E+01  0.2559E+02  0.2559E+02
     11.402  0.1178E+01  0.1180E+01  0.2566E+02  0.2566E+02
     11.459  0.1043E+01  0.1046E+01  0.2572E+02  0.2572E+02
     11.517  0.1251E+01  0.1254E+01  0.2579E+02  0.2579E+02
     11.574  0.1772E+01  0.1775E+01  0.2590E+02  0.2590E+02
     11.632  0.1967E+01  0.1968E+01  0.2601E+02  0.2601E+02
     11.689  0.1415E+01  0.1412E+01  0.2609E+02  0.2609E+02
     11.747  0.6913E+00  0.6890E+00  0.2613E+02  0.2613E+02
     11.804  0.3252E+00  0.3238E+00  0.2615E+02  0.2615E+02
     11.862  0.2959E+00  0.2948E+00  0.2617E+02  0.2617E+02
     11.919  0.4607E+00  0.4599E+00  0.2619E+02  0.2619E+02
     11.977  0.5489E+00  0.5490E+00  0.2622E+02  0.2622E+02
     12.034  0.3817E+00  0.3824E+00  0.2625E+02  0.2625E+02
     12.091  0.1954E+00  0.1957E+00  0.2626E+02  0.2626E+02
     12.149  0.1472E+00  0.1469E+00  0.2627E+02  0.2626E+02
     12.206  0.2695E+00  0.2683E+00  0.2628E+02  0.2628E+02
     12.264  0.6198E+00  0.6177E+00  0.2632E+02  0.2632E+02
     12.321  0.1186E+01  0.1184E+01  0.2638E+02  0.2638E+02
     12.379  0.1864E+01  0.1863E+01  0.2649E+02  0.2649E+02
     12.436  0.2319E+01  0.2320E+01  0.2662E+02  0.2662E+02
     12.494  0.1868E+01  0.1870E+01  0.2673E+02  0.2673E+02
     12.551  0.1004E+01  0.1005E+01  0.2679E+02  0.2679E+02
     12.609  0.5583E+00  0.5570E+00  0.2682E+02  0.2682E+02
     12.666  0.6401E+00  0.6359E+00  0.2686E+02  0.2686E+02
     12.724  0.1034E+01  0.1030E+01  0.2692E+02  0.2692E+02
     12.781  0.1219E+01  0.1221E+01  0.2699E+02  0.2699E+02
     12.839  0.1114E+01  0.1118E+01  0.2705E+02  0.2705E+02
     12.896  0.1385E+01  0.1387E+01  0.2713E+02  0.2713E+02
     12.954  0.1998E+01  0.1999E+01  0.2725E+02  0.2725E+02
     13.011  0.2014E+01  0.2015E+01  0.2736E+02  0.2736E+02
     13.069  0.1249E+01  0.1251E+01  0.2743E+02  0.2743E+02
     13.126  0.5388E+00  0.5394E+00  0.2747E+02  0.2747E+02
     13.183  0.1988E+00  0.1990E+00  0.2748E+02  0.2748E+02
     13.241  0.9275E-01  0.9264E-01  0.2748E+02  0.2748E+02
     13.298  0.1103E+00  0.1099E+00  0.2749E+02  0.2749E+02
     13.356  0.2407E+00  0.2396E+00  0.2750E+02  0.2750E+02
     13.413  0.4582E+00  0.4570E+00  0.2753E+02  0.2753E+02
     13.471  0.5326E+00  0.5325E+00  0.2756E+02  0.2756E+02
     13.528  0.3524E+00  0.3517E+00  0.2758E+02  0.2758E+02
     13.586  0.1700E+00  0.1656E+00  0.2759E+02  0.2759E+02
     13.643  0.1165E+00  0.9989E-01  0.2760E+02  0.2760E+02
     13.701  0.1924E+00  0.1515E+00  0.2761E+02  0.2760E+02
     13.758  0.3947E+00  0.3306E+00  0.2763E+02  0.2762E+02
     13.816  0.5682E+00  0.5535E+00  0.2766E+02  0.2765E+02
     13.873  0.5103E+00  0.5906E+00  0.2769E+02  0.2769E+02
     13.931  0.4499E+00  0.5664E+00  0.2772E+02  0.2772E+02
     13.988  0.6717E+00  0.8004E+00  0.2776E+02  0.2777E+02
     14.046  0.1041E+01  0.1099E+01  0.2782E+02  0.2783E+02
     14.103  0.1003E+01  0.9262E+00  0.2787E+02  0.2788E+02
     14.161  0.5736E+00  0.4817E+00  0.2791E+02  0.2791E+02
     14.218  0.2535E+00  0.2076E+00  0.2792E+02  0.2792E+02
     14.275  0.1528E+00  0.1357E+00  0.2793E+02  0.2793E+02
     14.333  0.1743E+00  0.1685E+00  0.2794E+02  0.2794E+02
     14.390  0.1861E+00  0.1844E+00  0.2795E+02  0.2795E+02
     14.448  0.1191E+00  0.1193E+00  0.2796E+02  0.2796E+02
     14.505  0.5226E-01  0.5239E-01  0.2796E+02  0.2796E+02
     14.563  0.1863E-01  0.1869E-01  0.2796E+02  0.2796E+02
     14.620  0.6141E-02  0.6159E-02  0.2796E+02  0.2796E+02
     14.678  0.1970E-02  0.1976E-02  0.2796E+02  0.2796E+02
     14.735  0.6267E-03  0.6286E-03  0.2796E+02  0.2796E+02
     14.793  0.0000E+00  0.0000E+00  0.2796E+02  0.2796E+02
     14.850  0.1732E-03  0.1359E-03  0.2796E+02  0.2796E+02
     14.908  0.3733E-03  0.2928E-03  0.2796E+02  0.2796E+02
     14.965  0.1175E-02  0.9224E-03  0.2796E+02  0.2796E+02
     15.023  0.3682E-02  0.2894E-02  0.2796E+02  0.2796E+02
     15.080  0.1135E-01  0.8968E-02  0.2796E+02  0.2796E+02
     15.138  0.3332E-01  0.2673E-01  0.2797E+02  0.2797E+02
     15.195  0.8531E-01  0.7127E-01  0.2797E+02  0.2797E+02
     15.253  0.1587E+00  0.1446E+00  0.2798E+02  0.2798E+02
     15.310  0.1738E+00  0.1792E+00  0.2799E+02  0.2799E+02
     15.367  0.1077E+00  0.1241E+00  0.2800E+02  0.2800E+02
     15.425  0.4530E-01  0.5555E-01  0.2800E+02  0.2800E+02
     15.482  0.1588E-01  0.1998E-01  0.2800E+02  0.2800E+02
     15.540  0.5200E-02  0.6603E-02  0.2800E+02  0.2800E+02
     15.597  0.1665E-02  0.2120E-02  0.2800E+02  0.2800E+02
     15.655  0.5293E-03  0.6747E-03  0.2800E+02  0.2800E+02
     15.712  0.0000E+00  0.0000E+00  0.2800E+02  0.2800E+02
     15.770  0.0000E+00  0.0000E+00  0.2800E+02  0.2800E+02
     15.827  0.0000E+00  0.0000E+00  0.2800E+02  0.2800E+02
     15.885  0.0000E+00  0.0000E+00  0.2800E+02  0.2800E+02
     15.942  0.0000E+00  0.0000E+00  0.2800E+02  0.2800E+02
     16.000  0.0000E+00  0.0000E+00  0.2800E+02  0.2800E+02
     16.057  0.0000E+00  0.0000E+00  0.2800E+02  0.2800E+02
     16.05713780     -1.18493156  301      5.69562834      1.00000000
     -1.185  0.0000E+00  0.0000E+00  0.0000E+00  0.0000E+00  0.0000E+00  0.0000E+00  0.0000E+00  0.0000E+00  0.0000E+00  0.0000E+00  0.0000E+00  0.0000E+00  0.0000E+00  0.0000E+00  0.0000E+00  0.0000E+00  0.0000E+00  0.0000E+00
     -1.127  0.0000E+00  0.0000E+00  0.0000E+00  0.0000E+00  0.0000E+00  0.0000E+00  0.0000E+00  0.0000E+00  0.0000E+00  0.0000E+00  0.0000E+00  0.0000E+00  0.0000E+00  0.0000E+00  0.0000E+00  0.0000E+00  0.0000E+00  0.0000E+00
     -1.070  0.0000E+00  0.0000E+00  0.0000E+00  0.0000E+00  0.0000E+00  0.0000E+00  0.0000E+00  0.0000E+00  0.0000E+00  0.0000E+00  0.0000E+00  0.0000E+00  0.0000E+00  0.0000E+00  0.0000E+00  0.0000E+00  0.0000E+00  0.0000E+00
     -1.013  0.0000E+00  0.0000E+00  0.0000E+00  0.0000E+00  0.0000E+00  0.0000E+00  0.0000E+00  0.0000E+00  0.0000E+00  0.0000E+00  0.0000E+00  0.0000E+00  0.0000E+00  0.0000E+00  0.0000E+00  0.0000E+00  0.0000E+00  0.0000E+00
     -0.955  0.0000E+00  0.0000E+00  0.0000E+00  0.0000E+00  0.0000E+00  0.0000E+00  0.0000E+00  0.0000E+00  0.0000E+00  0.0000E+00  0.0000E+00  0.0000E+00  0.0000E+00  0.0000E+00  0.0000E+00  0.0000E+00  0.0000E+00  0.0000E+00
     -0.898  0.0000E+00  0.0000E+00  0.0000E+00  0.0000E+00  0.0000E+00  0.0000E+00  0.0000E+00  0.0000E+00  0.0000E+00  0.0000E+00  0.0000E+00  0.0000E+00  0.0000E+00  0.0000E+00  0.0000E+00  0.0000E+00  0.0000E+00  0.0000E+00
     -0.840  0.1118E-04  0.1110E-04  0.5994E-07  0.5950E-07  0.5994E-07  0.5950E-07  0.5994E-07  0.5950E-07  0.1366E-07  0.1358E-07  0.1366E-07  0.1358E-07  0.1790E-20  0.2009E-20  0.1366E-07  0.1358E-07  0.1790E-20  0.2009E-20
     -0.783  0.2410E-04  0.2392E-04  0.1292E-06  0.1283E-06  0.1292E-06  0.1283E-06  0.1292E-06  0.1283E-06  0.2945E-07  0.2926E-07  0.2945E-07  0.2926E-07  0.3858E-20  0.4330E-20  0.2945E-07  0.2926E-07  0.3858E-20  0.4330E-20
     -0.725  0.7596E-04  0.7541E-04  0.4073E-06  0.4043E-06  0.4073E-06  0.4043E-06  0.4073E-06  0.4043E-06  0.9284E-07  0.9224E-07  0.9284E-07  0.9224E-07  0.1216E-19  0.1365E-19  0.9284E-07  0.9224E-07  0.1216E-19  0.1365E-19
     -0.668  0.2387E-03  0.2370E-03  0.1280E-05  0.1271E-05  0.1280E-05  0.1271E-05  0.1280E-05  0.1271E-05  0.2918E-06  0.2899E-06  0.2918E-06  0.2899E-06  0.3822E-19  0.4290E-19  0.2918E-06  0.2899E-06  0.3822E-19  0.4290E-19
     -0.610  0.7433E-03  0.7381E-03  0.3985E-05  0.3957E-05  0.3985E-05  0.3957E-05  0.3985E-05  0.3957E-05  0.9085E-06  0.9028E-06  0.9085E-06  0.9028E-06  0.1190E-18  0.1336E-18  0.9085E-06  0.9028E-06  0.1190E-18  0.1336E-18
     -0.553  0.2249E-02  0.2234E-02  0.1206E-04  0.1198E-04  0.1206E-04  0.1198E-04  0.1206E-04  0.1198E-04  0.2749E-05  0.2732E-05  0.2749E-05  0.2732E-05  0.3600E-18  0.4043E-18  0.2749E-05  0.2732E-05  0.3600E-18  0.4043E-18
     -0.495  0.6254E-02  0.6218E-02  0.3353E-04  0.3333E-04  0.3353E-04  0.3333E-04  0.3353E-04  0.3333E-04  0.7644E-05  0.7605E-05  0.7644E-05  0.7605E-05  0.1001E-17  0.1125E-17  0.7644E-05  0.7605E-05  0.1001E-17  0.1125E-17
     -0.438  0.1397E-01  0.1392E-01  0.7491E-04  0.7461E-04  0.7491E-04  0.7461E-04  0.7491E-04  0.7461E-04  0.1708E-04  0.1702E-04  0.1708E-04  0.1702E-04  0.2237E-17  0.2519E-17  0.1708E-04  0.1702E-04  0.2237E-17  0.2519E-17
     -0.380  0.2021E-01  0.2021E-01  0.1089E-03  0.1088E-03  0.1089E-03  0.1088E-03  0.1089E-03  0.1088E-03  0.2508E-04  0.2508E-04  0.2508E-04  0.2508E-04  0.3508E-06  0.3484E-06  0.2508E-04  0.2508E-04  0.3508E-06  0.3484E-06
     -0.323  0.1636E-01  0.1641E-01  0.8885E-04  0.8911E-04  0.8885E-04  0.8911E-04  0.8885E-04  0.8911E-04  0.2079E-04  0.2086E-04  0.2079E-04  0.2086E-04  0.7560E-06  0.7508E-06  0.2079E-04  0.2086E-04  0.7560E-06  0.7508E-06
     -0.265  0.8274E-02  0.8319E-02  0.4792E-04  0.4812E-04  0.4792E-04  0.4812E-04  0.4792E-04  0.4812E-04  0.1262E-04  0.1266E-04  0.1262E-04  0.1266E-04  0.2383E-05  0.2366E-05  0.1262E-04  0.1266E-04  0.2383E-05  0.2366E-05
     -0.208  0.3796E-02  0.3811E-02  0.3152E-04  0.3151E-04  0.3152E-04  0.3151E-04  0.3152E-04  0.3151E-04  0.1250E-04  0.1247E-04  0.1250E-04  0.1247E-04  0.7482E-05  0.7431E-05  0.1250E-04  0.1247E-04  0.7482E-05  0.7431E-05
     -0.150  0.3455E-02  0.3445E-02  0.5320E-04  0.5290E-04  0.5320E-04  0.5290E-04  0.5320E-04  0.5290E-04  0.2863E-04  0.2847E-04  0.2863E-04  0.2847E-04  0.2324E-04  0.2309E-04  0.2863E-04  0.2847E-04  0.2324E-04  0.2309E-04
     -0.093  0.7670E-02  0.7625E-02  0.1453E-03  0.1443E-03  0.1453E-03  0.1443E-03  0.1453E-03  0.1443E-03  0.8270E-04  0.8223E-04  0.8270E-04  0.8223E-04  0.6982E-04  0.6937E-04  0.8270E-04  0.8223E-04  0.6982E-04  0.6937E-04
     -0.035  0.2014E-01  0.2003E-01  0.3924E-03  0.3901E-03  0.3924E-03  0.3901E-03  0.3924E-03  0.3901E-03  0.2265E-03  0.2254E-03  0.2265E-03  0.2254E-03  0.1904E-03  0.1894E-03  0.2265E-03  0.2254E-03  0.1904E-03  0.1894E-03
      0.022  0.4269E-01  0.4254E-01  0.8347E-03  0.8318E-03  0.8347E-03  0.8318E-03  0.8347E-03  0.8318E-03  0.4824E-03  0.4811E-03  0.4824E-03  0.4811E-03  0.4057E-03  0.4043E-03  0.4824E-03  0.4811E-03  0.4057E-03  0.4043E-03
      0.079  0.5713E-01  0.5713E-01  0.1118E-02  0.1118E-02  0.1118E-02  0.1118E-02  0.1118E-02  0.1118E-02  0.6573E-03  0.6578E-03  0.6573E-03  0.6578E-03  0.5426E-03  0.5428E-03  0.6573E-03  0.6578E-03  0.5426E-03  0.5428E-03
      0.137  0.4292E-01  0.4308E-01  0.8438E-03  0.8466E-03  0.8438E-03  0.8466E-03  0.8438E-03  0.8466E-03  0.5530E-03  0.5548E-03  0.5530E-03  0.5548E-03  0.4399E-03  0.4413E-03  0.5530E-03  0.5548E-03  0.4399E-03  0.4413E-03
      0.194  0.2137E-01  0.2148E-01  0.4332E-03  0.4352E-03  0.4332E-03  0.4352E-03  0.4332E-03  0.4352E-03  0.4609E-03  0.4614E-03  0.4609E-03  0.4614E-03  0.2735E-03  0.2744E-03  0.4609E-03  0.4614E-03  0.2735E-03  0.2744E-03
      0.252  0.1192E-01  0.1195E-01  0.2806E-03  0.2807E-03  0.2806E-03  0.2807E-03  0.2806E-03  0.2807E-03  0.8405E-03  0.8383E-03  0.8405E-03  0.8383E-03  0.3455E-03  0.3450E-03  0.8405E-03  0.8383E-03  0.3455E-03  0.3450E-03
      0.309  0.1572E-01  0.1567E-01  0.4437E-03  0.4417E-03  0.4437E-03  0.4417E-03  0.4437E-03  0.4417E-03  0.2277E-02  0.2260E-02  0.2277E-02  0.2260E-02  0.9435E-03  0.9329E-03  0.2277E-02  0.2260E-02  0.9435E-03  0.9329E-03
      0.367  0.3265E-01  0.3254E-01  0.9619E-03  0.9581E-03  0.9619E-03  0.9581E-03  0.9619E-03  0.9581E-03  0.6151E-02  0.6146E-02  0.6151E-02  0.6146E-02  0.2756E-02  0.2755E-02  0.6151E-02  0.6146E-02  0.2756E-02  0.2755E-02
      0.424  0.5357E-01  0.5350E-01  0.1571E-02  0.1569E-02  0.1571E-02  0.1569E-02  0.1571E-02  0.1569E-02  0.1440E-01  0.1439E-01  0.1440E-01  0.1439E-01  0.8064E-02  0.8041E-02  0.1440E-01  0.1439E-01  0.8064E-02  0.8041E-02
      0.482  0.5720E-01  0.5726E-01  0.1624E-02  0.1625E-02  0.1624E-02  0.1625E-02  0.1624E-02  0.1625E-02  0.3094E-01  0.3092E-01  0.3094E-01  0.3092E-01  0.2163E-01  0.2157E-01  0.3094E-01  0.3092E-01  0.2163E-01  0.2157E-01
      0.539  0.5156E-01  0.5163E-01  0.1389E-02  0.1391E-02  0.1389E-02  0.1391E-02  0.1389E-02  0.1391E-02  0.6389E-01  0.6385E-01  0.6389E-01  0.6385E-01  0.4795E-01  0.4787E-01  0.6389E-01  0.6385E-01  0.4795E-01  0.4787E-01
      0.597  0.5366E-01  0.5366E-01  0.1540E-02  0.1539E-02  0.1540E-02  0.1539E-02  0.1540E-02  0.1539E-02  0.1140E+00  0.1139E+00  0.1140E+00  0.1139E+00  0.7825E-01  0.7817E-01  0.1140E+00  0.1139E+00  0.7825E-01  0.7817E-01
      0.654  0.6790E-01  0.6783E-01  0.2395E-02  0.2390E-02  0.2395E-02  0.2390E-02  0.2395E-02  0.2390E-02  0.1736E+00  0.1735E+00  0.1736E+00  0.1735E+00  0.1091E+00  0.1090E+00  0.1736E+00  0.1735E+00  0.1091E+00  0.1090E+00
      0.712  0.9663E-01  0.9651E-01  0.4086E-02  0.4079E-02  0.4086E-02  0.4079E-02  0.4086E-02  0.4079E-02  0.2428E+00  0.2427E+00  0.2428E+00  0.2427E+00  0.1621E+00  0.1619E+00  0.2428E+00  0.2427E+00  0.1621E+00  0.1619E+00
      0.769  0.1194E+00  0.1193E+00  0.5845E-02  0.5840E-02  0.5845E-02  0.5840E-02  0.5845E-02  0.5840E-02  0.3226E+00  0.3226E+00  0.3226E+00  0.3226E+00  0.2138E+00  0.2137E+00  0.3226E+00  0.3226E+00  0.2138E+00  0.2137E+00
      0.827  0.1231E+00  0.1231E+00  0.7078E-02  0.7075E-02  0.7078E-02  0.7075E-02  0.7078E-02  0.7075E-02  0.3915E+00  0.3915E+00  0.3915E+00  0.3915E+00  0.2348E+00  0.2348E+00  0.3915E+00  0.3915E+00  0.2348E+00  0.2348E+00
      0.884  0.1226E+00  0.1226E+00  0.8158E-02  0.8153E-02  0.8158E-02  0.8153E-02  0.8158E-02  0.8153E-02  0.4095E+00  0.4096E+00  0.4095E+00  0.4096E+00  0.2459E+00  0.2458E+00  0.4095E+00  0.4096E+00  0.2459E+00  0.2458E+00
      0.942  0.1124E+00  0.1125E+00  0.8631E-02  0.8630E-02  0.8631E-02  0.8630E-02  0.8631E-02  0.8630E-02  0.3920E+00  0.3921E+00  0.3920E+00  0.3921E+00  0.2718E+00  0.2717E+00  0.3920E+00  0.3921E+00  0.2718E+00  0.2717E+00
      0.999  0.8921E-01  0.8928E-01  0.8502E-02  0.8502E-02  0.8502E-02  0.8502E-02  0.8502E-02  0.8502E-02  0.3808E+00  0.3809E+00  0.3808E+00  0.3809E+00  0.3241E+00  0.3240E+00  0.3808E+00  0.3809E+00  0.3241E+00  0.3240E+00
      1.057  0.6565E-01  0.6571E-01  0.7981E-02  0.7981E-02  0.7981E-02  0.7981E-02  0.7981E-02  0.7981E-02  0.3560E+00  0.3561E+00  0.3560E+00  0.3561E+00  0.3243E+00  0.3244E+00  0.3560E+00  0.3561E+00  0.3243E+00  0.3244E+00
      1.114  0.4588E-01  0.4592E-01  0.7587E-02  0.7585E-02  0.7587E-02  0.7585E-02  0.7587E-02  0.7585E-02  0.3279E+00  0.3280E+00  0.3279E+00  0.3280E+00  0.2665E+00  0.2666E+00  0.3279E+00  0.3280E+00  0.2665E+00  0.2666E+00
      1.171  0.3164E-01  0.3166E-01  0.7742E-02  0.7740E-02  0.7742E-02  0.7740E-02  0.7742E-02  0.7740E-02  0.3135E+00  0.3135E+00  0.3135E+00  0.3135E+00  0.2422E+00  0.2422E+00  0.3135E+00  0.3135E+00  0.2422E+00  0.2422E+00
      1.229  0.2331E-01  0.2332E-01  0.8120E-02  0.8116E-02  0.8120E-02  0.8116E-02  0.8120E-02  0.8116E-02  0.2928E+00  0.2928E+00  0.2928E+00  0.2928E+00  0.2799E+00  0.2798E+00  0.2928E+00  0.2928E+00  0.2799E+00  0.2798E+00
      1.286  0.2112E-01  0.2113E-01  0.8390E-02  0.8387E-02  0.8390E-02  0.8387E-02  0.8390E-02  0.8387E-02  0.2620E+00  0.2620E+00  0.2620E+00  0.2620E+00  0.3421E+00  0.3421E+00  0.2620E+00  0.2620E+00  0.3421E+00  0.3421E+00
      1.344  0.2158E-01  0.2160E-01  0.8236E-02  0.8236E-02  0.8236E-02  0.8236E-02  0.8236E-02  0.8236E-02  0.2574E+00  0.2574E+00  0.2574E+00  0.2574E+00  0.3719E+00  0.3721E+00  0.2574E+00  0.2574E+00  0.3719E+00  0.3721E+00
      1.401  0.2391E-01  0.2394E-01  0.7747E-02  0.7749E-02  0.7747E-02  0.7749E-02  0.7747E-02  0.7749E-02  0.3058E+00  0.3059E+00  0.3058E+00  0.3059E+00  0.3783E+00  0.3784E+00  0.3058E+00  0.3059E+00  0.3783E+00  0.3784E+00
      1.459  0.2301E-01  0.2303E-01  0.6683E-02  0.6685E-02  0.6683E-02  0.6685E-02  0.6683E-02  0.6685E-02  0.3478E+00  0.3479E+00  0.3478E+00  0.3479E+00  0.3789E+00  0.3789E+00  0.3478E+00  0.3479E+00  0.3789E+00  0.3789E+00
      1.516  0.1833E-01  0.1834E-01  0.5541E-02  0.5540E-02  0.5541E-02  0.5540E-02  0.5541E-02  0.5540E-02  0.3364E+00  0.3365E+00  0.3364E+00  0.3365E+00  0.3539E+00  0.3540E+00  0.3364E+00  0.3365E+00  0.3539E+00  0.3540E+00
      1.574  0.1698E-01  0.1698E-01  0.5774E-02  0.5770E-02  0.5774E-02  0.5770E-02  0.5774E-02  0.5770E-02  0.3409E+00  0.3409E+00  0.3409E+00  0.3409E+00  0.3268E+00  0.3268E+00  0.3409E+00  0.3409E+00  0.3268E+00  0.3268E+00
      1.631  0.2074E-01  0.2074E-01  0.7844E-02  0.7839E-02  0.7844E-02  0.7839E-02  0.7844E-02  0.7839E-02  0.4201E+00  0.4201E+00  0.4201E+00  0.4201E+00  0.3562E+00  0.3562E+00  0.4201E+00  0.4201E+00  0.3562E+00  0.3562E+00
      1.689  0.2452E-01  0.2452E-01  0.1012E-01  0.1012E-01  0.1012E-01  0.1012E-01  0.1012E-01  0.1012E-01  0.5364E+00  0.5364E+00  0.5364E+00  0.5364E+00  0.4084E+00  0.4084E+00  0.5364E+00  0.5364E+00  0.4084E+00  0.4084E+00