   4   4   1   0
  0.2381553E+02  0.4567095E-09  0.4567095E-09  0.4567095E-09  0.5000000E-15
  1.000000000000000E-004
  CAR 
 unknown system                          
     14.15041727     -1.61646137  301      4.58804665      1.00000000
     -1.616  0.0000E+00  0.0000E+00  0.0000E+00  0.0000E+00
     -1.564  0.0000E+00  0.0000E+00  0.0000E+00  0.0000E+00
     -1.511  0.0000E+00  0.0000E+00  0.0000E+00  0.0000E+00
     -1.459  0.0000E+00  0.0000E+00  0.0000E+00  0.0000E+00
     -1.406  0.0000E+00  0.0000E+00  0.0000E+00  0.0000E+00
     -1.354  0.0000E+00  0.0000E+00  0.0000E+00  0.0000E+00
     -1.301  0.2301E-03  0.2300E-03  0.1209E-04  0.1209E-04
     -1.249  0.4278E-03  0.4275E-03  0.3457E-04  0.3456E-04
     -1.196  0.1221E-02  0.1220E-02  0.9874E-04  0.9869E-04
     -1.143  0.3470E-02  0.3468E-02  0.2811E-03  0.2809E-03
     -1.091  0.9739E-02  0.9734E-02  0.7929E-03  0.7925E-03
     -1.038  0.2642E-01  0.2641E-01  0.2182E-02  0.2181E-02
     -0.986  0.6551E-01  0.6549E-01  0.5625E-02  0.5622E-02
     -0.933  0.1320E+00  0.1319E+00  0.1256E-01  0.1256E-01
     -0.881  0.1807E+00  0.1807E+00  0.2206E-01  0.2205E-01
     -0.828  0.1516E+00  0.1516E+00  0.3003E-01  0.3002E-01
     -0.776  0.8574E-01  0.8577E-01  0.3453E-01  0.3453E-01
     -0.723  0.4637E-01  0.4638E-01  0.3697E-01  0.3697E-01
     -0.670  0.4669E-01  0.4668E-01  0.3942E-01  0.3942E-01
     -0.618  0.9591E-01  0.9586E-01  0.4446E-01  0.4446E-01
     -0.565  0.2233E+00  0.2232E+00  0.5620E-01  0.5619E-01
     -0.513  0.4284E+00  0.4283E+00  0.7871E-01  0.7870E-01
     -0.460  0.5508E+00  0.5508E+00  0.1077E+00  0.1077E+00
     -0.408  0.4445E+00  0.4446E+00  0.1310E+00  0.1310E+00
     -0.355  0.2825E+00  0.2825E+00  0.1459E+00  0.1459E+00
     -0.303  0.2696E+00  0.2695E+00  0.1600E+00  0.1600E+00
     -0.250  0.5020E+00  0.5018E+00  0.1864E+00  0.1864E+00
     -0.197  0.1106E+01  0.1106E+01  0.2446E+00  0.2445E+00
     -0.145  0.2113E+01  0.2113E+01  0.3556E+00  0.3556E+00
     -0.092  0.3359E+01  0.3359E+01  0.5322E+00  0.5321E+00
     -0.040  0.4760E+01  0.4759E+01  0.7824E+00  0.7823E+00
      0.013  0.6569E+01  0.6568E+01  0.1128E+01  0.1127E+01
      0.065  0.8625E+01  0.8625E+01  0.1581E+01  0.1581E+01
      0.118  0.1011E+02  0.1011E+02  0.2112E+01  0.2112E+01
      0.170  0.1067E+02  0.1067E+02  0.2673E+01  0.2673E+01
      0.223  0.1099E+02  0.1099E+02  0.3250E+01  0.3250E+01
      0.276  0.1089E+02  0.1089E+02  0.3823E+01  0.3823E+01
      0.328  0.9879E+01  0.9879E+01  0.4342E+01  0.4342E+01
      0.381  0.8912E+01  0.8912E+01  0.4811E+01  0.4811E+01
      0.433  0.8535E+01  0.8535E+01  0.5260E+01  0.5260E+01
      0.486  0.8641E+01  0.8641E+01  0.5714E+01  0.5714E+01
      0.538  0.9182E+01  0.9183E+01  0.6197E+01  0.6197E+01
      0.591  0.1001E+02  0.1001E+02  0.6723E+01  0.6723E+01
      0.643  0.1023E+02  0.1023E+02  0.7261E+01  0.7261E+01
      0.696  0.9863E+01  0.9864E+01  0.7780E+01  0.7780E+01
      0.749  0.1055E+02  0.1055E+02  0.8335E+01  0.8334E+01
      0.801  0.1246E+02  0.1246E+02  0.8990E+01  0.8990E+01
      0.854  0.1373E+02  0.1373E+02  0.9712E+01  0.9712E+01
      0.906  0.1295E+02  0.1295E+02  0.1039E+02  0.1039E+02
      0.959  0.1140E+02  0.1140E+02  0.1099E+02  0.1099E+02
      1.011  0.1044E+02  0.1044E+02  0.1154E+02  0.1154E+02
      1.064  0.9985E+01  0.9984E+01  0.1207E+02  0.1207E+02
      1.116  0.1019E+02  0.1019E+02  0.1260E+02  0.1260E+02
      1.169  0.1096E+02  0.1096E+02  0.1318E+02  0.1318E+02
      1.222  0.1197E+02  0.1197E+02  0.1381E+02  0.1381E+02
      1.274  0.1248E+02  0.1248E+02  0.1446E+02  0.1446E+02
      1.327  0.1201E+02  0.1201E+02  0.1510E+02  0.1510E+02
      1.379  0.1103E+02  0.1103E+02  0.1568E+02  0.1568E+02
      1.432  0.1066E+02  0.1066E+02  0.1624E+02  0.1624E+02
      1.484  0.1081E+02  0.1081E+02  0.1680E+02  0.1680E+02
      1.537  0.1075E+02  0.1075E+02  0.1737E+02  0.1737E+02
      1.589  0.1087E+02  0.1087E+02  0.1794E+02  0.1794E+02
      1.642  0.1166E+02  0.1166E+02  0.1856E+02  0.1855E+02
      1.695  0.1179E+02  0.1179E+02  0.1918E+02  0.1918E+02
      1.747  0.1000E+02  0.1001E+02  0.1970E+02  0.1970E+02
      1.800  0.7176E+01  0.7178E+01  0.2008E+02  0.2008E+02
      1.852  0.4511E+01  0.4511E+01  0.2032E+02  0.2032E+02
      1.905  0.2799E+01  0.2799E+01  0.2046E+02  0.2046E+02
      1.957  0.1807E+01  0.1807E+01  0.2056E+02  0.2056E+02
      2.010  0.1136E+01  0.1136E+01  0.2062E+02  0.2062E+02
      2.062  0.8247E+00  0.8248E+00  0.2066E+02  0.2066E+02
      2.115  0.6799E+00  0.6800E+00  0.2070E+02  0.2070E+02
      2.168  0.4515E+00  0.4516E+00  0.2072E+02  0.2072E+02
      2.220  0.2342E+00  0.2343E+00  0.2074E+02  0.2074E+02
      2.273  0.1424E+00  0.1424E+00  0.2074E+02  0.2074E+02
      2.325  0.1770E+00  0.1768E+00  0.2075E+02  0.2075E+02
      2.378  0.3341E+00  0.3339E+00  0.2077E+02  0.2077E+02
      2.430  0.5189E+00  0.5187E+00  0.2080E+02  0.2080E+02
      2.483  0.5133E+00  0.5135E+00  0.2082E+02  0.2082E+02
      2.535  0.3328E+00  0.3331E+00  0.2084E+02  0.2084E+02
      2.588  0.1970E+00  0.1971E+00  0.2085E+02  0.2085E+02
      2.641  0.2017E+00  0.2017E+00  0.2086E+02  0.2086E+02
      2.693  0.3469E+00  0.3468E+00  0.2088E+02  0.2088E+02
      2.746  0.5433E+00  0.5432E+00  0.2091E+02  0.2091E+02
      2.798  0.5851E+00  0.5851E+00  0.2094E+02  0.2094E+02
      2.851  0.5100E+00  0.5099E+00  0.2097E+02  0.2097E+02
      2.903  0.5906E+00  0.5903E+00  0.2100E+02  0.2100E+02
      2.956  0.8802E+00  0.8799E+00  0.2104E+02  0.2104E+02
      3.008  0.1195E+01  0.1195E+01  0.2111E+02  0.2111E+02
      3.061  0.1356E+01  0.1356E+01  0.2118E+02  0.2118E+02
      3.114  0.1137E+01  0.1137E+01  0.2124E+02  0.2124E+02
      3.166  0.6539E+00  0.6543E+00  0.2127E+02  0.2127E+02
      3.219  0.2910E+00  0.2912E+00  0.2129E+02  0.2129E+02
      3.271  0.1259E+00  0.1260E+00  0.2129E+02  0.2129E+02
      3.324  0.8708E-01  0.8706E-01  0.2130E+02  0.2130E+02
      3.376  0.1387E+00  0.1386E+00  0.2131E+02  0.2131E+02
      3.429  0.2920E+00  0.2918E+00  0.2132E+02  0.2132E+02
      3.481  0.4921E+00  0.4920E+00  0.2135E+02  0.2135E+02
      3.534  0.5395E+00  0.5396E+00  0.2138E+02  0.2138E+02
      3.587  0.3845E+00  0.3846E+00  0.2140E+02  0.2140E+02
      3.639  0.2475E+00  0.2476E+00  0.2141E+02  0.2141E+02
      3.692  0.2175E+00  0.2174E+00  0.2142E+02  0.2142E+02
      3.744  0.2106E+00  0.2107E+00  0.2143E+02  0.2143E+02
      3.797  0.1587E+00  0.1589E+00  0.2144E+02  0.2144E+02
      3.849  0.1226E+00  0.1227E+00  0.2145E+02  0.2145E+02
      3.902  0.1759E+00  0.1759E+00  0.2146E+02  0.2146E+02
      3.955  0.3907E+00  0.3906E+00  0.2148E+02  0.2148E+02
      4.007  0.8150E+00  0.8146E+00  0.2152E+02  0.2152E+02
      4.060  0.1259E+01  0.1258E+01  0.2159E+02  0.2159E+02
      4.112  0.1340E+01  0.1340E+01  0.2166E+02  0.2166E+02
      4.165  0.1108E+01  0.1108E+01  0.2171E+02  0.2171E+02
      4.217  0.7846E+00  0.7850E+00  0.2176E+02  0.2176E+02
      4.270  0.5833E+00  0.5835E+00  0.2179E+02  0.2179E+02
      4.322  0.6924E+00  0.6920E+00  0.2182E+02  0.2182E+02
      4.375  0.1012E+01  0.1012E+01  0.2188E+02  0.2188E+02
      4.428  0.1082E+01  0.1083E+01  0.2193E+02  0.2193E+02
      4.480  0.7317E+00  0.7323E+00  0.2197E+02  0.2197E+02
      4.533  0.3604E+00  0.3608E+00  0.2199E+02  0.2199E+02
      4.585  0.1801E+00  0.1803E+00  0.2200E+02  0.2200E+02
      4.638  0.1721E+00  0.1719E+00  0.2201E+02  0.2201E+02
      4.690  0.3317E+00  0.3313E+00  0.2203E+02  0.2203E+02
      4.743  0.6864E+00  0.6857E+00  0.2206E+02  0.2206E+02
      4.795  0.1056E+01  0.1056E+01  0.2212E+02  0.2212E+02
      4.848  0.1033E+01  0.1034E+01  0.2217E+02  0.2217E+02
      4.901  0.7036E+00  0.7038E+00  0.2221E+02  0.2221E+02
      4.953  0.5191E+00  0.5185E+00  0.2224E+02  0.2224E+02
      5.006  0.5639E+00  0.5632E+00  0.2227E+02  0.2227E+02
      5.058  0.5829E+00  0.5832E+00  0.2230E+02  0.2230E+02
      5.111  0.4202E+00  0.4212E+00  0.2232E+02  0.2232E+02
      5.163  0.2574E+00  0.2580E+00  0.2233E+02  0.2233E+02
      5.216  0.2462E+00  0.2464E+00  0.2235E+02  0.2235E+02
      5.268  0.4276E+00  0.4275E+00  0.2237E+02  0.2237E+02
      5.321  0.7443E+00  0.7442E+00  0.2241E+02  0.2241E+02
      5.374  0.9644E+00  0.9646E+00  0.2246E+02  0.2246E+02
      5.426  0.8819E+00  0.8822E+00  0.2250E+02  0.2250E+02
      5.479  0.5786E+00  0.5787E+00  0.2253E+02  0.2253E+02
      5.531  0.3176E+00  0.3175E+00  0.2255E+02  0.2255E+02
      5.584  0.2456E+00  0.2453E+00  0.2256E+02  0.2256E+02
      5.636  0.3782E+00  0.3775E+00  0.2258E+02  0.2258E+02
      5.689  0.6830E+00  0.6824E+00  0.2262E+02  0.2262E+02
      5.741  0.1016E+01  0.1016E+01  0.2267E+02  0.2267E+02
      5.794  0.1263E+01  0.1263E+01  0.2274E+02  0.2274E+02
      5.847  0.1268E+01  0.1268E+01  0.2281E+02  0.2281E+02
      5.899  0.8885E+00  0.8887E+00  0.2285E+02  0.2285E+02
      5.952  0.4664E+00  0.4664E+00  0.2288E+02  0.2288E+02
      6.004  0.2718E+00  0.2714E+00  0.2289E+02  0.2289E+02
      6.057  0.3144E+00  0.3133E+00  0.2291E+02  0.2291E+02
      6.109  0.5604E+00  0.5588E+00  0.2294E+02  0.2294E+02
      6.162  0.9020E+00  0.9011E+00  0.2299E+02  0.2299E+02
      6.214  0.1186E+01  0.1186E+01  0.2305E+02  0.2305E+02
      6.267  0.1308E+01  0.1309E+01  0.2312E+02  0.2312E+02
      6.320  0.1048E+01  0.1049E+01  0.2317E+02  0.2317E+02
      6.372  0.5756E+00  0.5768E+00  0.2320E+02  0.2320E+02
      6.425  0.2460E+00  0.2466E+00  0.2321E+02  0.2321E+02
      6.477  0.9425E-01  0.9447E-01  0.2322E+02  0.2322E+02
      6.530  0.3852E-01  0.3858E-01  0.2322E+02  0.2322E+02
      6.582  0.2659E-01  0.2656E-01  0.2322E+02  0.2322E+02
      6.635  0.4727E-01  0.4709E-01  0.2323E+02  0.2323E+02
      6.687  0.1200E+00  0.1195E+00  0.2323E+02  0.2323E+02
      6.740  0.3085E+00  0.3074E+00  0.2325E+02  0.2325E+02
      6.793  0.6759E+00  0.6741E+00  0.2328E+02  0.2328E+02
      6.845  0.1077E+01  0.1076E+01  0.2334E+02  0.2334E+02
      6.898  0.1120E+01  0.1122E+01  0.2340E+02  0.2340E+02
      6.950  0.9038E+00  0.9066E+00  0.2345E+02  0.2345E+02
      7.003  0.8880E+00  0.8904E+00  0.2349E+02  0.2349E+02
      7.055  0.1100E+01  0.1102E+01  0.2355E+02  0.2355E+02
      7.108  0.1326E+01  0.1326E+01  0.2362E+02  0.2362E+02
      7.160  0.1356E+01  0.1356E+01  0.2369E+02  0.2369E+02
      7.213  0.1044E+01  0.1044E+01  0.2375E+02  0.2375E+02
      7.266  0.7398E+00  0.7396E+00  0.2379E+02  0.2379E+02
      7.318  0.7231E+00  0.7232E+00  0.2382E+02  0.2382E+02
      7.371  0.8180E+00  0.8173E+00  0.2387E+02  0.2387E+02
      7.423  0.8433E+00  0.8420E+00  0.2391E+02  0.2391E+02
      7.476  0.8191E+00  0.8187E+00  0.2395E+02  0.2395E+02
      7.528  0.7291E+00  0.7299E+00  0.2399E+02  0.2399E+02
      7.581  0.7476E+00  0.7491E+00  0.2403E+02  0.2403E+02
      7.633  0.1004E+01  0.1006E+01  0.2409E+02  0.2409E+02
      7.686  0.1146E+01  0.1146E+01  0.2415E+02  0.2415E+02
      7.739  0.8789E+00  0.8778E+00  0.2419E+02  0.2419E+02
      7.791  0.5691E+00  0.5681E+00  0.2422E+02  0.2422E+02
      7.844  0.5585E+00  0.5580E+00  0.2425E+02  0.2425E+02
      7.896  0.8498E+00  0.8495E+00  0.2430E+02  0.2430E+02
      7.949  0.1104E+01  0.1103E+01  0.2435E+02  0.2435E+02
      8.001  0.9128E+00  0.9130E+00  0.2440E+02  0.2440E+02
      8.054  0.5022E+00  0.5024E+00  0.2443E+02  0.2443E+02
      8.106  0.2310E+00  0.2311E+00  0.2444E+02  0.2444E+02
      8.159  0.1398E+00  0.1399E+00  0.2445E+02  0.2445E+02
      8.212  0.1613E+00  0.1615E+00  0.2446E+02  0.2446E+02
      8.264  0.2163E+00  0.2163E+00  0.2447E+02  0.2447E+02
      8.317  0.2411E+00  0.2408E+00  0.2448E+02  0.2448E+02
      8.369  0.3047E+00  0.3042E+00  0.2450E+02  0.2450E+02
      8.422  0.5638E+00  0.5630E+00  0.2453E+02  0.2453E+02
      8.474  0.1049E+01  0.1048E+01  0.2458E+02  0.2458E+02
      8.527  0.1480E+01  0.1480E+01  0.2466E+02  0.2466E+02
      8.579  0.1628E+01  0.1629E+01  0.2474E+02  0.2474E+02
      8.632  0.1619E+01  0.1620E+01  0.2483E+02  0.2483E+02
      8.685  0.1391E+01  0.1392E+01  0.2490E+02  0.2490E+02
      8.737  0.1073E+01  0.1073E+01  0.2496E+02  0.2496E+02
      8.790  0.7617E+00  0.7610E+00  0.2500E+02  0.2500E+02
      8.842  0.4278E+00  0.4269E+00  0.2502E+02  0.2502E+02
      8.895  0.1914E+00  0.1909E+00  0.2503E+02  0.2503E+02
      8.947  0.8085E-01  0.8062E-01  0.2504E+02  0.2504E+02
      9.000  0.5339E-01  0.5334E-01  0.2504E+02  0.2504E+02
      9.052  0.8596E-01  0.8607E-01  0.2504E+02  0.2504E+02
      9.105  0.2131E+00  0.2134E+00  0.2505E+02  0.2505E+02
      9.158  0.5162E+00  0.5170E+00  0.2508E+02  0.2508E+02
      9.210  0.1027E+01  0.1028E+01  0.2514E+02  0.2514E+02
      9.263  0.1451E+01  0.1451E+01  0.2521E+02  0.2521E+02
      9.315  0.1430E+01  0.1429E+01  0.2529E+02  0.2529E+02
      9.368  0.1118E+01  0.1117E+01  0.2535E+02  0.2535E+02
      9.420  0.8667E+00  0.8658E+00  0.2539E+02  0.2539E+02
      9.473  0.7463E+00  0.7460E+00  0.2543E+02  0.2543E+02
      9.525  0.5544E+00  0.5544E+00  0.2546E+02  0.2546E+02
      9.578  0.3480E+00  0.3483E+00  0.2548E+02  0.2548E+02
      9.631  0.3149E+00  0.3158E+00  0.2549E+02  0.2549E+02
      9.683  0.5600E+00  0.5621E+00  0.2552E+02  0.2552E+02
      9.736  0.1166E+01  0.1169E+01  0.2559E+02  0.2559E+02
      9.788  0.1939E+01  0.1943E+01  0.2569E+02  0.2569E+02
      9.841  0.2318E+01  0.2321E+01  0.2581E+02  0.2581E+02
      9.893  0.2185E+01  0.2185E+01  0.2592E+02  0.2592E+02
      9.946  0.1763E+01  0.1758E+01  0.2602E+02  0.2602E+02
      9.998  0.1236E+01  0.1232E+01  0.2608E+02  0.2608E+02
     10.051  0.7287E+00  0.7261E+00  0.2612E+02  0.2612E+02
     10.104  0.3555E+00  0.3544E+00  0.2614E+02  0.2614E+02
     10.156  0.1837E+00  0.1833E+00  0.2615E+02  0.2615E+02
     10.209  0.1769E+00  0.1769E+00  0.2616E+02  0.2616E+02
     10.261  0.3113E+00  0.3116E+00  0.2617E+02  0.2617E+02
     10.314  0.5016E+00  0.5019E+00  0.2620E+02  0.2620E+02
     10.366  0.5332E+00  0.5330E+00  0.2623E+02  0.2623E+02
     10.419  0.3668E+00  0.3665E+00  0.2625E+02  0.2625E+02
     10.471  0.2295E+00  0.2293E+00  0.2626E+02  0.2626E+02
     10.524  0.2504E+00  0.2504E+00  0.2627E+02  0.2627E+02
     10.577  0.4727E+00  0.4729E+00  0.2630E+02  0.2630E+02
     10.629  0.8961E+00  0.8967E+00  0.2635E+02  0.2635E+02
     10.682  0.1446E+01  0.1448E+01  0.2642E+02  0.2642E+02
     10.734  0.2077E+01  0.2079E+01  0.2653E+02  0.2653E+02
     10.787  0.2321E+01  0.2321E+01  0.2665E+02  0.2665E+02
     10.839  0.1701E+01  0.1699E+01  0.2674E+02  0.2674E+02
     10.892  0.8662E+00  0.8651E+00  0.2679E+02  0.2679E+02
     10.944  0.3822E+00  0.3816E+00  0.2681E+02  0.2681E+02
     10.997  0.2284E+00  0.2279E+00  0.2682E+02  0.2682E+02
     11.050  0.3171E+00  0.3164E+00  0.2684E+02  0.2684E+02
     11.102  0.6945E+00  0.6934E+00  0.2687E+02  0.2687E+02
     11.155  0.1416E+01  0.1415E+01  0.2695E+02  0.2695E+02
     11.207  0.2213E+01  0.2215E+01  0.2706E+02  0.2706E+02
     11.260  0.2595E+01  0.2599E+01  0.2720E+02  0.2720E+02
     11.312  0.2356E+01  0.2358E+01  0.2732E+02  0.2732E+02
     11.365  0.1623E+01  0.1622E+01  0.2741E+02  0.2741E+02
     11.417  0.8385E+00  0.8363E+00  0.2745E+02  0.2745E+02
     11.470  0.3598E+00  0.3586E+00  0.2747E+02  0.2747E+02
     11.523  0.1651E+00  0.1646E+00  0.2748E+02  0.2748E+02
     11.575  0.1409E+00  0.1408E+00  0.2749E+02  0.2749E+02
     11.628  0.2436E+00  0.2437E+00  0.2750E+02  0.2750E+02
     11.680  0.4376E+00  0.4377E+00  0.2752E+02  0.2752E+02
     11.733  0.5450E+00  0.5451E+00  0.2755E+02  0.2755E+02
     11.785  0.4204E+00  0.4204E+00  0.2757E+02  0.2757E+02
     11.838  0.2302E+00  0.2304E+00  0.2759E+02  0.2759E+02
     11.890  0.1371E+00  0.1379E+00  0.2759E+02  0.2759E+02
     11.943  0.1646E+00  0.1665E+00  0.2760E+02  0.2760E+02
     11.996  0.3145E+00  0.3175E+00  0.2762E+02  0.2762E+02
     12.048  0.5265E+00  0.5270E+00  0.2765E+02  0.2765E+02
     12.101  0.6079E+00  0.5998E+00  0.2768E+02  0.2768E+02
     12.153  0.5634E+00  0.5442E+00  0.2771E+02  0.2771E+02
     12.206  0.6770E+00  0.6454E+00  0.2774E+02  0.2774E+02
     12.258  0.9909E+00  0.9614E+00  0.2780E+02  0.2779E+02
     12.311  0.1097E+01  0.1104E+01  0.2785E+02  0.2785E+02
     12.364  0.7667E+00  0.7991E+00  0.2789E+02  0.2789E+02
     12.416  0.3731E+00  0.3973E+00  0.2791E+02  0.2791E+02
     12.469  0.1503E+00  0.1616E+00  0.2792E+02  0.2792E+02
     12.521  0.6219E-01  0.6659E-01  0.2793E+02  0.2792E+02
     12.574  0.4131E-01  0.4294E-01  0.2793E+02  0.2793E+02
     12.626  0.6275E-01  0.6339E-01  0.2793E+02  0.2793E+02
     12.679  0.1185E+00  0.1186E+00  0.2794E+02  0.2794E+02
     12.731  0.1763E+00  0.1763E+00  0.2795E+02  0.2795E+02
     12.784  0.1611E+00  0.1610E+00  0.2795E+02  0.2795E+02
     12.837  0.9354E-01  0.9343E-01  0.2796E+02  0.2796E+02
     12.889  0.4073E-01  0.4067E-01  0.2796E+02  0.2796E+02
     12.942  0.1549E-01  0.1546E-01  0.2796E+02  0.2796E+02
     12.994  0.5688E-02  0.5698E-02  0.2796E+02  0.2796E+02
     13.047  0.2171E-02  0.2203E-02  0.2796E+02  0.2796E+02
     13.099  0.1261E-02  0.1360E-02  0.2796E+02  0.2796E+02
     13.152  0.1624E-02  0.1907E-02  0.2796E+02  0.2796E+02
     13.204  0.4606E-02  0.5398E-02  0.2796E+02  0.2796E+02
     13.257  0.1285E-01  0.1499E-01  0.2796E+02  0.2796E+02
     13.310  0.3428E-01  0.3954E-01  0.2797E+02  0.2797E+02
     13.362  0.8148E-01  0.9138E-01  0.2797E+02  0.2797E+02
     13.415  0.1501E+00  0.1593E+00  0.2798E+02  0.2798E+02
     13.467  0.1802E+00  0.1772E+00  0.2799E+02  0.2799E+02
     13.520  0.1317E+00  0.1208E+00  0.2799E+02  0.2800E+02
     13.572  0.6551E-01  0.5756E-01  0.2800E+02  0.2800E+02
     13.625  0.2642E-01  0.2276E-01  0.2800E+02  0.2800E+02
     13.677  0.9739E-02  0.8326E-02  0.2800E+02  0.2800E+02
     13.730  0.3470E-02  0.2958E-02  0.2800E+02  0.2800E+02
     13.783  0.1221E-02  0.1040E-02  0.2800E+02  0.2800E+02
     13.835  0.0000E+00  0.0000E+00  0.2800E+02  0.2800E+02
     13.888  0.0000E+00  0.0000E+00  0.2800E+02  0.2800E+02
     13.940  0.0000E+00  0.0000E+00  0.2800E+02  0.2800E+02
     13.993  0.0000E+00  0.0000E+00  0.2800E+02  0.2800E+02
     14.045  0.0000E+00  0.0000E+00  0.2800E+02  0.2800E+02
     14.098  0.0000E+00  0.0000E+00  0.2800E+02  0.2800E+02
     14.150  0.0000E+00  0.0000E+00  0.2800E+02  0.2800E+02
     14.15041727     -1.61646137  301      4.58804665      1.00000000
     -1.616  0.0000E+00  0.0000E+00  0.0000E+00  0.0000E+00  0.0000E+00  0.0000E+00  0.0000E+00  0.0000E+00  0.0000E+00  0.0000E+00  0.0000E+00  0.0000E+00  0.0000E+00  0.0000E+00  0.0000E+00  0.0000E+00  0.0000E+00  0.0000E+00
     -1.564  0.0000E+00  0.0000E+00  0.0000E+00  0.0000E+00  0.0000E+00  0.0000E+00  0.0000E+00  0.0000E+00  0.0000E+00  0.0000E+00  0.0000E+00  0.0000E+00  0.0000E+00  0.0000E+00  0.0000E+00  0.0000E+00  0.0000E+00  0.0000E+00
     -1.511  0.0000E+00  0.0000E+00  0.0000E+00  0.0000E+00  0.0000E+00  0.0000E+00  0.0000E+00  0.0000E+00  0.0000E+00  0.0000E+00  0.0000E+00  0.0000E+00  0.0000E+00  0.0000E+00  0.0000E+00  0.0000E+00  0.0000E+00  0.0000E+00
     -1.459  0.0000E+00  0.0000E+00  0.0000E+00  0.0000E+00  0.0000E+00  0.0000E+00  0.0000E+00  0.0000E+00  0.0000E+00  0.0000E+00  0.0000E+00  0.0000E+00  0.0000E+00  0.0000E+00  0.0000E+00  0.0000E+00  0.0000E+00  0.0000E+00
     -1.406  0.0000E+00  0.0000E+00  0.0000E+00  0.0000E+00  0.0000E+00  0.0000E+00  0.0000E+00  0.0000E+00  0.0000E+00  0.0000E+00  0.0000E+00  0.0000E+00  0.0000E+00  0.0000E+00  0.0000E+00  0.0000E+00  0.0000E+00  0.0000E+00
     -1.354  0.0000E+00  0.0000E+00  0.0000E+00  0.0000E+00  0.0000E+00  0.0000E+00  0.0000E+00  0.0000E+00  0.0000E+00  0.0000E+00  0.0000E+00  0.0000E+00  0.0000E+00  0.0000E+00  0.0000E+00  0.0000E+00  0.0000E+00  0.0000E+00
     -1.301  0.2373E-04  0.2372E-04  0.1144E-06  0.1143E-06  0.1144E-06  0.1143E-06  0.1144E-06  0.1143E-06  0.3599E-07  0.3600E-07  0.3599E-07  0.3600E-07  0.5117E-20  0.3982E-20  0.3599E-07  0.3600E-07  0.5117E-20  0.3982E-20
     -1.249  0.4411E-04  0.4409E-04  0.2126E-06  0.2125E-06  0.2126E-06  0.2125E-06  0.2126E-06  0.2125E-06  0.6692E-07  0.6693E-07  0.6692E-07  0.6693E-07  0.9513E-20  0.7403E-20  0.6692E-07  0.6693E-07  0.9513E-20  0.7403E-20
     -1.196  0.1259E-03  0.1258E-03  0.6069E-06  0.6066E-06  0.6069E-06  0.6066E-06  0.6069E-06  0.6066E-06  0.1910E-06  0.1910E-06  0.1910E-06  0.1910E-06  0.2715E-19  0.2113E-19  0.1910E-06  0.1910E-06  0.2715E-19  0.2113E-19
     -1.143  0.3578E-03  0.3576E-03  0.1725E-05  0.1724E-05  0.1725E-05  0.1724E-05  0.1725E-05  0.1724E-05  0.5428E-06  0.5429E-06  0.5428E-06  0.5429E-06  0.7716E-19  0.6005E-19  0.5428E-06  0.5429E-06  0.7716E-19  0.6005E-19
     -1.091  0.1004E-02  0.1004E-02  0.4842E-05  0.4839E-05  0.4842E-05  0.4839E-05  0.4842E-05  0.4839E-05  0.1524E-05  0.1524E-05  0.1524E-05  0.1524E-05  0.2166E-18  0.1686E-18  0.1524E-05  0.1524E-05  0.2166E-18  0.1686E-18
     -1.038  0.2725E-02  0.2724E-02  0.1313E-04  0.1313E-04  0.1313E-04  0.1313E-04  0.1313E-04  0.1313E-04  0.4133E-05  0.4134E-05  0.4133E-05  0.4134E-05  0.5876E-18  0.4573E-18  0.4133E-05  0.4134E-05  0.5876E-18  0.4573E-18
     -0.986  0.6756E-02  0.6754E-02  0.3257E-04  0.3255E-04  0.3257E-04  0.3255E-04  0.3257E-04  0.3255E-04  0.1025E-04  0.1025E-04  0.1025E-04  0.1025E-04  0.1457E-17  0.1134E-17  0.1025E-04  0.1025E-04  0.1457E-17  0.1134E-17
     -0.933  0.1361E-01  0.1361E-01  0.6594E-04  0.6592E-04  0.6594E-04  0.6592E-04  0.6594E-04  0.6592E-04  0.2101E-04  0.2102E-04  0.2101E-04  0.2102E-04  0.3248E-06  0.3247E-06  0.2101E-04  0.2102E-04  0.3248E-06  0.3247E-06
     -0.881  0.1863E-01  0.1863E-01  0.9045E-04  0.9044E-04  0.9045E-04  0.9044E-04  0.9045E-04  0.9044E-04  0.2894E-04  0.2896E-04  0.2894E-04  0.2896E-04  0.6042E-06  0.6041E-06  0.2894E-04  0.2896E-04  0.6042E-06  0.6041E-06
     -0.828  0.1562E-01  0.1563E-01  0.7714E-04  0.7715E-04  0.7714E-04  0.7715E-04  0.7714E-04  0.7715E-04  0.2564E-04  0.2566E-04  0.2564E-04  0.2566E-04  0.1727E-05  0.1727E-05  0.2564E-04  0.2566E-04  0.1727E-05  0.1727E-05
     -0.776  0.8814E-02  0.8818E-02  0.4769E-04  0.4769E-04  0.4769E-04  0.4769E-04  0.4769E-04  0.4769E-04  0.1889E-04  0.1890E-04  0.1889E-04  0.1890E-04  0.4927E-05  0.4926E-05  0.1889E-04  0.1890E-04  0.4927E-05  0.4926E-05
     -0.723  0.4701E-02  0.4703E-02  0.3742E-04  0.3741E-04  0.3742E-04  0.3741E-04  0.3742E-04  0.3741E-04  0.2279E-04  0.2280E-04  0.2279E-04  0.2280E-04  0.1399E-04  0.1398E-04  0.2279E-04  0.2280E-04  0.1399E-04  0.1398E-04
     -0.670  0.4590E-02  0.4589E-02  0.6343E-04  0.6339E-04  0.6343E-04  0.6339E-04  0.6343E-04  0.6339E-04  0.5079E-04  0.5080E-04  0.5079E-04  0.5080E-04  0.3914E-04  0.3913E-04  0.5079E-04  0.5080E-04  0.3914E-04  0.3913E-04
     -0.618  0.9279E-02  0.9276E-02  0.1563E-03  0.1562E-03  0.1563E-03  0.1562E-03  0.1563E-03  0.1562E-03  0.1348E-03  0.1349E-03  0.1348E-03  0.1349E-03  0.1055E-03  0.1054E-03  0.1348E-03  0.1349E-03  0.1055E-03  0.1054E-03
     -0.565  0.2153E-01  0.2153E-01  0.3744E-03  0.3742E-03  0.3744E-03  0.3742E-03  0.3744E-03  0.3742E-03  0.3320E-03  0.3321E-03  0.3320E-03  0.3321E-03  0.2560E-03  0.2559E-03  0.3320E-03  0.3321E-03  0.2560E-03  0.2559E-03
     -0.513  0.4119E-01  0.4119E-01  0.7198E-03  0.7196E-03  0.7198E-03  0.7196E-03  0.7198E-03  0.7196E-03  0.6832E-03  0.6835E-03  0.6832E-03  0.6835E-03  0.5460E-03  0.5459E-03  0.6832E-03  0.6835E-03  0.5460E-03  0.5459E-03
     -0.460  0.5276E-01  0.5276E-01  0.9243E-03  0.9242E-03  0.9243E-03  0.9242E-03  0.9243E-03  0.9242E-03  0.9998E-03  0.1000E-02  0.9998E-03  0.1000E-02  0.7431E-03  0.7432E-03  0.9998E-03  0.1000E-02  0.7431E-03  0.7432E-03
     -0.408  0.4172E-01  0.4174E-01  0.7367E-03  0.7368E-03  0.7367E-03  0.7368E-03  0.7367E-03  0.7368E-03  0.1235E-02  0.1236E-02  0.1235E-02  0.1236E-02  0.8708E-03  0.8707E-03  0.1235E-02  0.1236E-02  0.8708E-03  0.8707E-03
     -0.355  0.2395E-01  0.2396E-01  0.4404E-03  0.4405E-03  0.4404E-03  0.4405E-03  0.4404E-03  0.4405E-03  0.2120E-02  0.2121E-02  0.2120E-02  0.2121E-02  0.1327E-02  0.1327E-02  0.2120E-02  0.2121E-02  0.1327E-02  0.1327E-02
     -0.303  0.1658E-01  0.1658E-01  0.3506E-03  0.3506E-03  0.3506E-03  0.3506E-03  0.3506E-03  0.3506E-03  0.5286E-02  0.5286E-02  0.5286E-02  0.5286E-02  0.3174E-02  0.3172E-02  0.5286E-02  0.5286E-02  0.3174E-02  0.3172E-02
     -0.250  0.2305E-01  0.2304E-01  0.5529E-03  0.5526E-03  0.5529E-03  0.5526E-03  0.5529E-03  0.5526E-03  0.1386E-01  0.1386E-01  0.1386E-01  0.1386E-01  0.8395E-02  0.8388E-02  0.1386E-01  0.1386E-01  0.8395E-02  0.8388E-02
     -0.197  0.4252E-01  0.4251E-01  0.1051E-02  0.1050E-02  0.1051E-02  0.1050E-02  0.1051E-02  0.1050E-02  0.3460E-01  0.3459E-01  0.3460E-01  0.3459E-01  0.2158E-01  0.2157E-01  0.3460E-01  0.3459E-01  0.2158E-01  0.2157E-01
     -0.145  0.6350E-01  0.6349E-01  0.1567E-02  0.1567E-02  0.1567E-02  0.1567E-02  0.1567E-02  0.1567E-02  0.7506E-01  0.7506E-01  0.7506E-01  0.7506E-01  0.4773E-01  0.4770E-01  0.7506E-01  0.7506E-01  0.4773E-01  0.4770E-01
     -0.092  0.7032E-01  0.7033E-01  0.1780E-02  0.1780E-02  0.1780E-02  0.1780E-02  0.1780E-02  0.1780E-02  0.1365E+00  0.1365E+00  0.1365E+00  0.1365E+00  0.8452E-01  0.8449E-01  0.1365E+00  0.1365E+00  0.8452E-01  0.8449E-01
     -0.040  0.6964E-01  0.6965E-01  0.2006E-02  0.2006E-02  0.2006E-02  0.2006E-02  0.2006E-02  0.2006E-02  0.2116E+00  0.2116E+00  0.2116E+00  0.2116E+00  0.1263E+00  0.1262E+00  0.2116E+00  0.2116E+00  0.1263E+00  0.1262E+00
      0.013  0.7735E-01  0.7735E-01  0.2768E-02  0.2768E-02  0.2768E-02  0.2768E-02  0.2768E-02  0.2768E-02  0.3006E+00  0.3006E+00  0.3006E+00  0.3006E+00  0.1823E+00  0.1822E+00  0.3006E+00  0.3006E+00  0.1823E+00  0.1822E+00
      0.065  0.9500E-01  0.9499E-01  0.4168E-02  0.4168E-02  0.4168E-02  0.4168E-02  0.4168E-02  0.4168E-02  0.3974E+00  0.3974E+00  0.3974E+00  0.3974E+00  0.2418E+00  0.2418E+00  0.3974E+00  0.3974E+00  0.2418E+00  0.2418E+00
      0.118  0.1112E+00  0.1112E+00  0.5745E-02  0.5745E-02  0.5745E-02  0.5745E-02  0.5745E-02  0.5745E-02  0.4670E+00  0.4670E+00  0.4670E+00  0.4670E+00  0.2806E+00  0.2805E+00  0.4670E+00  0.4670E+00  0.2806E+00  0.2805E+00
      0.170  0.1158E+00  0.1158E+00  0.6858E-02  0.6858E-02  0.6858E-02  0.6858E-02  0.6858E-02  0.6858E-02  0.4858E+00  0.4858E+00  0.4858E+00  0.4858E+00  0.3085E+00  0.3085E+00  0.4858E+00  0.4858E+00  0.3085E+00  0.3085E+00
      0.223  0.1100E+00  0.1100E+00  0.7513E-02  0.7513E-02  0.7513E-02  0.7513E-02  0.7513E-02  0.7513E-02  0.4817E+00  0.4817E+00  0.4817E+00  0.4817E+00  0.3556E+00  0.3556E+00  0.4817E+00  0.4817E+00  0.3556E+00  0.3556E+00
      0.276  0.9176E-01  0.9178E-01  0.7586E-02  0.7587E-02  0.7586E-02  0.7587E-02  0.7586E-02  0.7587E-02  0.4625E+00  0.4625E+00  0.4625E+00  0.4625E+00  0.3949E+00  0.3949E+00  0.4625E+00  0.4625E+00  0.3949E+00  0.3949E+00
      0.328  0.6541E-01  0.6543E-01  0.7152E-02  0.7152E-02  0.7152E-02  0.7152E-02  0.7152E-02  0.7152E-02  0.4268E+00  0.4268E+00  0.4268E+00  0.4268E+00  0.3672E+00  0.3673E+00  0.4268E+00  0.4268E+00  0.3672E+00  0.3673E+00
      0.381  0.4301E-01  0.4302E-01  0.6910E-02  0.6910E-02  0.6910E-02  0.6910E-02  0.6910E-02  0.6910E-02  0.3968E+00  0.3968E+00  0.3968E+00  0.3968E+00  0.3317E+00  0.3317E+00  0.3968E+00  0.3968E+00  0.3317E+00  0.3317E+00
      0.433  0.2913E-01  0.2914E-01  0.6914E-02  0.6914E-02  0.6914E-02  0.6914E-02  0.6914E-02  0.6914E-02  0.3637E+00  0.3637E+00  0.3637E+00  0.3637E+00  0.3564E+00  0.3563E+00  0.3637E+00  0.3637E+00  0.3564E+00  0.3563E+00
      0.486  0.2389E-01  0.2390E-01  0.6972E-02  0.6972E-02  0.6972E-02  0.6972E-02  0.6972E-02  0.6972E-02  0.3307E+00  0.3307E+00  0.3307E+00  0.3307E+00  0.4261E+00  0.4261E+00  0.3307E+00  0.3307E+00  0.4261E+00  0.4261E+00
      0.538  0.2451E-01  0.2452E-01  0.6944E-02  0.6945E-02  0.6944E-02  0.6945E-02  0.6944E-02  0.6945E-02  0.3390E+00  0.3390E+00  0.3390E+00  0.3390E+00  0.4790E+00  0.4790E+00  0.3390E+00  0.3390E+00  0.4790E+00  0.4790E+00
      0.591  0.2772E-01  0.2773E-01  0.6677E-02  0.6678E-02  0.6677E-02  0.6678E-02  0.6677E-02  0.6678E-02  0.3949E+00  0.3950E+00  0.3949E+00  0.3950E+00  0.4930E+00  0.4930E+00  0.3949E+00  0.3950E+00  0.4930E+00  0.4930E+00
      0.643  0.2739E-01  0.2740E-01  0.5911E-02  0.5913E-02  0.5911E-02  0.5913E-02  0.5911E-02  0.5913E-02  0.4311E+00  0.4312E+00  0.4311E+00  0.4312E+00  0.4728E+00  0.4728E+00  0.4311E+00  0.4312E+00  0.4728E+00  0.4728E+00
      0.696  0.2254E-01  0.2254E-01  0.5194E-02  0.5194E-02  0.5194E-02  0.5194E-02  0.5194E-02  0.5194E-02  0.4365E+00  0.4365E+00  0.4365E+00  0.4365E+00  0.4368E+00  0.4368E+00  0.4365E+00  0.4365E+00  0.4368E+00  0.4368E+00
      0.749  0.2067E-01  0.2067E-01  0.5772E-02  0.5771E-02  0.5772E-02  0.5771E-02  0.5772E-02  0.5771E-02  0.4898E+00  0.4898E+00  0.4898E+00  0.4898E+00  0.4411E+00  0.4410E+00  0.4898E+00  0.4898E+00  0.4411E+00  0.4410E+00
      0.801  0.2338E-01  0.2338E-01  0.7488E-02  0.7487E-02  0.7488E-02  0.7487E-02  0.7488E-02  0.7487E-02  0.6022E+00  0.6023E+00  0.6022E+00  0.6023E+00  0.4893E+00  0.4892E+00  0.6022E+00  0.6023E+00  0.4893E+00  0.4892E+00
      0.854  0.2592E-01  0.2592E-01  0.8643E-02  0.8643E-02  0.8643E-02  0.8643E-02  0.8643E-02  0.8643E-02  0.6804E+00  0.6805E+00  0.6804E+00  0.6805E+00  0.5157E+00  0.5156E+00  0.6804E+00  0.6805E+00  0.5157E+00  0.5156E+00
      0.906  0.2602E-01  0.2602E-01  0.8382E-02  0.8382E-02  0.8382E-02  0.8382E-02  0.8382E-02  0.8382E-02  0.6356E+00  0.6356E+00  0.6356E+00  0.6356E+00  0.4961E+00  0.4960E+00  0.6356E+00  0.6356E+00  0.4961E+00  0.4960E+00
      0.959  0.2641E-01  0.2641E-01  0.7842E-02  0.7842E-02  0.7842E-02  0.7842E-02  0.7842E-02  0.7842E-02  0.5416E+00  0.5417E+00  0.5416E+00  0.5417E+00  0.4607E+00  0.4606E+00  0.5416E+00  0.5417E+00  0.4607E+00  0.4606E+00
      1.011  0.2789E-01  0.2789E-01  0.7676E-02  0.7676E-02  0.7676E-02  0.7676E-02  0.7676E-02  0.7676E-02  0.4872E+00  0.4872E+00  0.4872E+00  0.4872E+00  0.4333E+00  0.4332E+00  0.4872E+00  0.4872E+00  0.4333E+00  0.4332E+00