   4   4   1   0
  0.1898815E+02  0.4234943E-09  0.4234943E-09  0.4234943E-09  0.5000000E-15
  1.000000000000000E-004
  CAR 
 unknown system                          
     18.23724628     -0.64867570  301      6.98000991      1.00000000
     -0.649  0.0000E+00  0.0000E+00  0.0000E+00  0.0000E+00
     -0.586  0.0000E+00  0.0000E+00  0.0000E+00  0.0000E+00
     -0.523  0.0000E+00  0.0000E+00  0.0000E+00  0.0000E+00
     -0.460  0.0000E+00  0.0000E+00  0.0000E+00  0.0000E+00
     -0.397  0.0000E+00  0.0000E+00  0.0000E+00  0.0000E+00
     -0.334  0.0000E+00  0.0000E+00  0.0000E+00  0.0000E+00
     -0.271  0.0000E+00  0.0000E+00  0.0000E+00  0.0000E+00
     -0.208  0.1383E-03  0.1381E-03  0.8705E-05  0.8692E-05
     -0.145  0.3484E-03  0.3480E-03  0.3064E-04  0.3060E-04
     -0.082  0.1224E-02  0.1222E-02  0.1077E-03  0.1075E-03
     -0.019  0.4271E-02  0.4265E-02  0.3765E-03  0.3760E-03
      0.044  0.1456E-01  0.1454E-01  0.1293E-02  0.1291E-02
      0.107  0.4595E-01  0.4590E-01  0.4186E-02  0.4181E-02
      0.170  0.1158E+00  0.1157E+00  0.1147E-01  0.1146E-01
      0.233  0.1781E+00  0.1781E+00  0.2269E-01  0.2267E-01
      0.296  0.1389E+00  0.1390E+00  0.3143E-01  0.3142E-01
      0.359  0.6228E-01  0.6235E-01  0.3535E-01  0.3535E-01
      0.422  0.2453E-01  0.2455E-01  0.3689E-01  0.3689E-01
      0.484  0.2123E-01  0.2122E-01  0.3823E-01  0.3823E-01
      0.547  0.5337E-01  0.5330E-01  0.4159E-01  0.4158E-01
      0.610  0.1598E+00  0.1596E+00  0.5170E-01  0.5168E-01
      0.673  0.3828E+00  0.3825E+00  0.7579E-01  0.7576E-01
      0.736  0.5386E+00  0.5386E+00  0.1097E+00  0.1097E+00
      0.799  0.3832E+00  0.3835E+00  0.1338E+00  0.1338E+00
      0.862  0.1679E+00  0.1679E+00  0.1444E+00  0.1444E+00
      0.925  0.8284E-01  0.8304E-01  0.1496E+00  0.1496E+00
      0.988  0.1187E+00  0.1186E+00  0.1571E+00  0.1571E+00
      1.051  0.2950E+00  0.2947E+00  0.1757E+00  0.1756E+00
      1.114  0.5629E+00  0.5626E+00  0.2112E+00  0.2111E+00
      1.177  0.6817E+00  0.6815E+00  0.2541E+00  0.2540E+00
      1.240  0.8270E+00  0.8261E+00  0.3062E+00  0.3061E+00
      1.303  0.1396E+01  0.1394E+01  0.3940E+00  0.3938E+00
      1.366  0.2240E+01  0.2239E+01  0.5351E+00  0.5347E+00
      1.429  0.3287E+01  0.3285E+01  0.7420E+00  0.7415E+00
      1.492  0.4680E+01  0.4677E+01  0.1037E+01  0.1036E+01
      1.555  0.5949E+01  0.5947E+01  0.1411E+01  0.1410E+01
      1.618  0.7119E+01  0.7117E+01  0.1859E+01  0.1858E+01
      1.681  0.7937E+01  0.7936E+01  0.2359E+01  0.2358E+01
      1.744  0.7443E+01  0.7444E+01  0.2828E+01  0.2827E+01
      1.806  0.7118E+01  0.7116E+01  0.3276E+01  0.3275E+01
      1.869  0.7600E+01  0.7599E+01  0.3754E+01  0.3753E+01
      1.932  0.6834E+01  0.6837E+01  0.4185E+01  0.4184E+01
      1.995  0.5811E+01  0.5812E+01  0.4551E+01  0.4550E+01
      2.058  0.5448E+01  0.5448E+01  0.4894E+01  0.4894E+01
      2.121  0.5596E+01  0.5594E+01  0.5247E+01  0.5246E+01
      2.184  0.5840E+01  0.5840E+01  0.5615E+01  0.5614E+01
      2.247  0.5540E+01  0.5541E+01  0.5964E+01  0.5963E+01
      2.310  0.5654E+01  0.5655E+01  0.6320E+01  0.6319E+01
      2.373  0.6284E+01  0.6284E+01  0.6716E+01  0.6715E+01
      2.436  0.6663E+01  0.6664E+01  0.7136E+01  0.7135E+01
      2.499  0.6112E+01  0.6113E+01  0.7521E+01  0.7520E+01
      2.562  0.5870E+01  0.5869E+01  0.7891E+01  0.7890E+01
      2.625  0.7000E+01  0.6997E+01  0.8332E+01  0.8331E+01
      2.688  0.8674E+01  0.8671E+01  0.8878E+01  0.8877E+01
      2.751  0.1018E+02  0.1017E+02  0.9519E+01  0.9517E+01
      2.814  0.1020E+02  0.1020E+02  0.1016E+02  0.1016E+02
      2.877  0.8834E+01  0.8838E+01  0.1072E+02  0.1072E+02
      2.940  0.7370E+01  0.7372E+01  0.1118E+02  0.1118E+02
      3.003  0.6702E+01  0.6703E+01  0.1160E+02  0.1160E+02
      3.066  0.6211E+01  0.6212E+01  0.1200E+02  0.1199E+02
      3.129  0.5848E+01  0.5847E+01  0.1236E+02  0.1236E+02
      3.191  0.6113E+01  0.6109E+01  0.1275E+02  0.1275E+02
      3.254  0.6963E+01  0.6958E+01  0.1319E+02  0.1319E+02
      3.317  0.7926E+01  0.7923E+01  0.1369E+02  0.1369E+02
      3.380  0.8379E+01  0.8378E+01  0.1422E+02  0.1421E+02
      3.443  0.8672E+01  0.8670E+01  0.1476E+02  0.1476E+02
      3.506  0.8159E+01  0.8162E+01  0.1528E+02  0.1527E+02
      3.569  0.6632E+01  0.6637E+01  0.1569E+02  0.1569E+02
      3.632  0.5686E+01  0.5687E+01  0.1605E+02  0.1605E+02
      3.695  0.6277E+01  0.6274E+01  0.1645E+02  0.1645E+02
      3.758  0.6937E+01  0.6935E+01  0.1688E+02  0.1688E+02
      3.821  0.6696E+01  0.6697E+01  0.1731E+02  0.1730E+02
      3.884  0.5974E+01  0.5976E+01  0.1768E+02  0.1768E+02
      3.947  0.6460E+01  0.6456E+01  0.1809E+02  0.1809E+02
      4.010  0.8454E+01  0.8449E+01  0.1862E+02  0.1862E+02
      4.073  0.9448E+01  0.9448E+01  0.1922E+02  0.1921E+02
      4.136  0.8697E+01  0.8702E+01  0.1976E+02  0.1976E+02
      4.199  0.7258E+01  0.7264E+01  0.2022E+02  0.2022E+02
      4.262  0.4896E+01  0.4905E+01  0.2053E+02  0.2053E+02
      4.325  0.2275E+01  0.2281E+01  0.2067E+02  0.2067E+02
      4.388  0.8519E+00  0.8543E+00  0.2073E+02  0.2073E+02
      4.451  0.4730E+00  0.4734E+00  0.2076E+02  0.2076E+02
      4.513  0.5414E+00  0.5412E+00  0.2079E+02  0.2079E+02
      4.576  0.5170E+00  0.5174E+00  0.2083E+02  0.2083E+02
      4.639  0.2739E+00  0.2743E+00  0.2084E+02  0.2084E+02
      4.702  0.1002E+00  0.1004E+00  0.2085E+02  0.2085E+02
      4.765  0.3349E-01  0.3355E-01  0.2085E+02  0.2085E+02
      4.828  0.1966E-01  0.1964E-01  0.2085E+02  0.2085E+02
      4.891  0.4047E-01  0.4034E-01  0.2086E+02  0.2086E+02
      4.954  0.1269E+00  0.1265E+00  0.2086E+02  0.2086E+02
      5.017  0.3804E+00  0.3793E+00  0.2089E+02  0.2089E+02
      5.080  0.8473E+00  0.8459E+00  0.2094E+02  0.2094E+02
      5.143  0.1093E+01  0.1093E+01  0.2101E+02  0.2101E+02
      5.206  0.8091E+00  0.8102E+00  0.2106E+02  0.2106E+02
      5.269  0.6481E+00  0.6482E+00  0.2110E+02  0.2110E+02
      5.332  0.9284E+00  0.9276E+00  0.2116E+02  0.2116E+02
      5.395  0.1093E+01  0.1093E+01  0.2123E+02  0.2123E+02
      5.458  0.6946E+00  0.6958E+00  0.2127E+02  0.2127E+02
      5.521  0.2833E+00  0.2839E+00  0.2129E+02  0.2129E+02
      5.584  0.1329E+00  0.1329E+00  0.2130E+02  0.2130E+02
      5.647  0.1721E+00  0.1717E+00  0.2131E+02  0.2131E+02
      5.710  0.3691E+00  0.3682E+00  0.2133E+02  0.2133E+02
      5.773  0.6108E+00  0.6104E+00  0.2137E+02  0.2137E+02
      5.835  0.6207E+00  0.6213E+00  0.2141E+02  0.2141E+02
      5.898  0.3540E+00  0.3548E+00  0.2143E+02  0.2143E+02
      5.961  0.1331E+00  0.1335E+00  0.2144E+02  0.2144E+02
      6.024  0.4184E-01  0.4198E-01  0.2144E+02  0.2144E+02
      6.087  0.1445E-01  0.1448E-01  0.2144E+02  0.2144E+02
      6.150  0.1114E-01  0.1113E-01  0.2145E+02  0.2145E+02
      6.213  0.2759E-01  0.2752E-01  0.2145E+02  0.2145E+02
      6.276  0.9236E-01  0.9215E-01  0.2145E+02  0.2145E+02
      6.339  0.2774E+00  0.2768E+00  0.2147E+02  0.2147E+02
      6.402  0.6350E+00  0.6341E+00  0.2151E+02  0.2151E+02
      6.465  0.1007E+01  0.1006E+01  0.2157E+02  0.2157E+02
      6.528  0.1275E+01  0.1275E+01  0.2165E+02  0.2165E+02
      6.591  0.1193E+01  0.1194E+01  0.2173E+02  0.2173E+02
      6.654  0.8279E+00  0.8281E+00  0.2178E+02  0.2178E+02
      6.717  0.8476E+00  0.8463E+00  0.2183E+02  0.2183E+02
      6.780  0.1117E+01  0.1116E+01  0.2190E+02  0.2190E+02
      6.843  0.9032E+00  0.9049E+00  0.2196E+02  0.2196E+02
      6.906  0.4223E+00  0.4237E+00  0.2199E+02  0.2199E+02
      6.969  0.1649E+00  0.1653E+00  0.2200E+02  0.2200E+02
      7.032  0.1312E+00  0.1308E+00  0.2201E+02  0.2201E+02
      7.095  0.2817E+00  0.2802E+00  0.2202E+02  0.2202E+02
      7.158  0.6221E+00  0.6203E+00  0.2206E+02  0.2206E+02
      7.220  0.9763E+00  0.9762E+00  0.2213E+02  0.2213E+02
      7.283  0.1233E+01  0.1234E+01  0.2220E+02  0.2220E+02
      7.346  0.1136E+01  0.1137E+01  0.2227E+02  0.2227E+02
      7.409  0.6132E+00  0.6145E+00  0.2231E+02  0.2231E+02
      7.472  0.2238E+00  0.2243E+00  0.2233E+02  0.2233E+02
      7.535  0.6921E-01  0.6941E-01  0.2233E+02  0.2233E+02
      7.598  0.2079E-01  0.2084E-01  0.2233E+02  0.2233E+02
      7.661  0.1162E-01  0.1162E-01  0.2233E+02  0.2233E+02
      7.724  0.2115E-01  0.2107E-01  0.2234E+02  0.2234E+02
      7.787  0.7081E-01  0.7058E-01  0.2234E+02  0.2234E+02
      7.850  0.2137E+00  0.2131E+00  0.2235E+02  0.2235E+02
      7.913  0.4873E+00  0.4865E+00  0.2238E+02  0.2238E+02
      7.976  0.6995E+00  0.6993E+00  0.2243E+02  0.2243E+02
      8.039  0.7719E+00  0.7715E+00  0.2248E+02  0.2248E+02
      8.102  0.9096E+00  0.9087E+00  0.2253E+02  0.2253E+02
      8.165  0.9286E+00  0.9282E+00  0.2259E+02  0.2259E+02
      8.228  0.6941E+00  0.6954E+00  0.2264E+02  0.2264E+02
      8.291  0.3524E+00  0.3538E+00  0.2266E+02  0.2266E+02
      8.354  0.1850E+00  0.1855E+00  0.2267E+02  0.2267E+02
      8.417  0.2668E+00  0.2664E+00  0.2269E+02  0.2269E+02
      8.480  0.6833E+00  0.6819E+00  0.2273E+02  0.2273E+02
      8.542  0.1391E+01  0.1390E+01  0.2282E+02  0.2282E+02
      8.605  0.1550E+01  0.1551E+01  0.2291E+02  0.2291E+02
      8.668  0.9024E+00  0.9040E+00  0.2297E+02  0.2297E+02
      8.731  0.3870E+00  0.3875E+00  0.2300E+02  0.2300E+02
      8.794  0.2909E+00  0.2901E+00  0.2301E+02  0.2301E+02
      8.857  0.5572E+00  0.5550E+00  0.2305E+02  0.2305E+02
      8.920  0.1000E+01  0.9988E+00  0.2311E+02  0.2311E+02
      8.983  0.9766E+00  0.9783E+00  0.2317E+02  0.2317E+02
      9.046  0.5071E+00  0.5094E+00  0.2321E+02  0.2321E+02
      9.109  0.1805E+00  0.1815E+00  0.2322E+02  0.2322E+02
      9.172  0.5651E-01  0.5684E-01  0.2322E+02  0.2322E+02
      9.235  0.2226E-01  0.2234E-01  0.2322E+02  0.2322E+02
      9.298  0.2695E-01  0.2690E-01  0.2322E+02  0.2322E+02
      9.361  0.7677E-01  0.7651E-01  0.2323E+02  0.2323E+02
      9.424  0.2455E+00  0.2447E+00  0.2324E+02  0.2324E+02
      9.487  0.6407E+00  0.6393E+00  0.2328E+02  0.2328E+02
      9.550  0.1053E+01  0.1053E+01  0.2335E+02  0.2335E+02
      9.613  0.8805E+00  0.8818E+00  0.2341E+02  0.2341E+02
      9.676  0.4083E+00  0.4094E+00  0.2343E+02  0.2343E+02
      9.739  0.1398E+00  0.1402E+00  0.2344E+02  0.2344E+02
      9.802  0.5035E-01  0.5048E-01  0.2344E+02  0.2344E+02
      9.864  0.4432E-01  0.4431E-01  0.2345E+02  0.2345E+02
      9.927  0.1139E+00  0.1137E+00  0.2345E+02  0.2345E+02
      9.990  0.3389E+00  0.3385E+00  0.2348E+02  0.2348E+02
     10.053  0.7968E+00  0.7961E+00  0.2353E+02  0.2353E+02
     10.116  0.1096E+01  0.1096E+01  0.2359E+02  0.2359E+02
     10.179  0.8085E+00  0.8091E+00  0.2365E+02  0.2365E+02
     10.242  0.5348E+00  0.5352E+00  0.2368E+02  0.2368E+02
     10.305  0.7163E+00  0.7166E+00  0.2372E+02  0.2372E+02
     10.368  0.1080E+01  0.1080E+01  0.2379E+02  0.2379E+02
     10.431  0.9417E+00  0.9418E+00  0.2385E+02  0.2385E+02
     10.494  0.5323E+00  0.5325E+00  0.2389E+02  0.2389E+02
     10.557  0.4347E+00  0.4354E+00  0.2391E+02  0.2391E+02
     10.620  0.5713E+00  0.5717E+00  0.2395E+02  0.2395E+02
     10.683  0.5488E+00  0.5484E+00  0.2398E+02  0.2398E+02
     10.746  0.4504E+00  0.4503E+00  0.2401E+02  0.2401E+02
     10.809  0.6960E+00  0.6968E+00  0.2406E+02  0.2406E+02
     10.872  0.1322E+01  0.1323E+01  0.2414E+02  0.2414E+02
     10.935  0.1757E+01  0.1755E+01  0.2425E+02  0.2425E+02
     10.998  0.1600E+01  0.1599E+01  0.2435E+02  0.2435E+02
     11.061  0.9519E+00  0.9521E+00  0.2441E+02  0.2441E+02
     11.124  0.3767E+00  0.3771E+00  0.2443E+02  0.2443E+02
     11.187  0.1200E+00  0.1201E+00  0.2444E+02  0.2444E+02
     11.249  0.3640E-01  0.3645E-01  0.2444E+02  0.2444E+02
     11.312  0.1207E-01  0.1209E-01  0.2444E+02  0.2444E+02
     11.375  0.1162E-01  0.1162E-01  0.2445E+02  0.2445E+02
     11.438  0.4026E-01  0.4025E-01  0.2445E+02  0.2445E+02
     11.501  0.1347E+00  0.1347E+00  0.2446E+02  0.2446E+02
     11.564  0.3994E+00  0.3992E+00  0.2448E+02  0.2448E+02
     11.627  0.8982E+00  0.8978E+00  0.2454E+02  0.2454E+02
     11.690  0.1234E+01  0.1234E+01  0.2462E+02  0.2462E+02
     11.753  0.9330E+00  0.9336E+00  0.2467E+02  0.2467E+02
     11.816  0.5673E+00  0.5679E+00  0.2471E+02  0.2471E+02
     11.879  0.7057E+00  0.7067E+00  0.2475E+02  0.2475E+02
     11.942  0.1325E+01  0.1326E+01  0.2484E+02  0.2484E+02
     12.005  0.1601E+01  0.1601E+01  0.2494E+02  0.2494E+02
     12.068  0.9954E+00  0.9943E+00  0.2500E+02  0.2500E+02
     12.131  0.3879E+00  0.3873E+00  0.2503E+02  0.2503E+02
     12.194  0.1253E+00  0.1251E+00  0.2503E+02  0.2503E+02
     12.257  0.4835E-01  0.4831E-01  0.2504E+02  0.2504E+02
     12.320  0.5445E-01  0.5451E-01  0.2504E+02  0.2504E+02
     12.383  0.1483E+00  0.1485E+00  0.2505E+02  0.2505E+02
     12.446  0.4418E+00  0.4424E+00  0.2508E+02  0.2508E+02
     12.509  0.9739E+00  0.9746E+00  0.2514E+02  0.2514E+02
     12.571  0.1288E+01  0.1288E+01  0.2522E+02  0.2522E+02
     12.634  0.1121E+01  0.1121E+01  0.2529E+02  0.2529E+02
     12.697  0.8231E+00  0.8224E+00  0.2534E+02  0.2534E+02
     12.760  0.5773E+00  0.5766E+00  0.2538E+02  0.2538E+02
     12.823  0.5826E+00  0.5822E+00  0.2542E+02  0.2542E+02
     12.886  0.5653E+00  0.5654E+00  0.2545E+02  0.2545E+02
     12.949  0.3370E+00  0.3372E+00  0.2547E+02  0.2547E+02
     13.012  0.1943E+00  0.1945E+00  0.2549E+02  0.2549E+02
     13.075  0.2819E+00  0.2820E+00  0.2550E+02  0.2550E+02
     13.138  0.6528E+00  0.6530E+00  0.2554E+02  0.2554E+02
     13.201  0.1060E+01  0.1060E+01  0.2561E+02  0.2561E+02
     13.264  0.8924E+00  0.8923E+00  0.2567E+02  0.2567E+02
     13.327  0.4501E+00  0.4501E+00  0.2570E+02  0.2570E+02
     13.390  0.2801E+00  0.2802E+00  0.2571E+02  0.2571E+02
     13.453  0.4483E+00  0.4487E+00  0.2574E+02  0.2574E+02
     13.516  0.8729E+00  0.8747E+00  0.2580E+02  0.2580E+02
     13.579  0.1343E+01  0.1347E+01  0.2588E+02  0.2588E+02
     13.642  0.1707E+01  0.1710E+01  0.2599E+02  0.2599E+02
     13.705  0.1510E+01  0.1507E+01  0.2608E+02  0.2608E+02
     13.768  0.9292E+00  0.9249E+00  0.2614E+02  0.2614E+02
     13.831  0.6867E+00  0.6846E+00  0.2618E+02  0.2619E+02
     13.893  0.6146E+00  0.6139E+00  0.2622E+02  0.2622E+02
     13.956  0.3663E+00  0.3661E+00  0.2625E+02  0.2625E+02
     14.019  0.1514E+00  0.1513E+00  0.2626E+02  0.2626E+02
     14.082  0.8295E-01  0.8286E-01  0.2626E+02  0.2626E+02
     14.145  0.1506E+00  0.1503E+00  0.2627E+02  0.2627E+02
     14.208  0.4287E+00  0.4280E+00  0.2630E+02  0.2630E+02
     14.271  0.1049E+01  0.1048E+01  0.2636E+02  0.2636E+02
     14.334  0.1828E+01  0.1829E+01  0.2648E+02  0.2648E+02
     14.397  0.2225E+01  0.2226E+01  0.2662E+02  0.2662E+02
     14.460  0.2015E+01  0.2013E+01  0.2675E+02  0.2675E+02
     14.523  0.1603E+01  0.1599E+01  0.2685E+02  0.2685E+02
     14.586  0.1417E+01  0.1415E+01  0.2694E+02  0.2694E+02
     14.649  0.9956E+00  0.9985E+00  0.2700E+02  0.2700E+02
     14.712  0.4919E+00  0.4945E+00  0.2703E+02  0.2703E+02
     14.775  0.3593E+00  0.3607E+00  0.2705E+02  0.2705E+02
     14.838  0.7127E+00  0.7141E+00  0.2710E+02  0.2710E+02
     14.901  0.1589E+01  0.1590E+01  0.2720E+02  0.2720E+02
     14.964  0.2149E+01  0.2149E+01  0.2733E+02  0.2733E+02
     15.027  0.1475E+01  0.1473E+01  0.2743E+02  0.2743E+02
     15.090  0.6057E+00  0.6049E+00  0.2746E+02  0.2746E+02
     15.153  0.1974E+00  0.1971E+00  0.2748E+02  0.2748E+02
     15.215  0.6876E-01  0.6864E-01  0.2748E+02  0.2748E+02
     15.278  0.5610E-01  0.5598E-01  0.2748E+02  0.2748E+02
     15.341  0.1265E+00  0.1263E+00  0.2749E+02  0.2749E+02
     15.404  0.3275E+00  0.3273E+00  0.2751E+02  0.2751E+02
     15.467  0.5296E+00  0.5299E+00  0.2755E+02  0.2755E+02
     15.530  0.4359E+00  0.4381E+00  0.2757E+02  0.2757E+02
     15.593  0.2051E+00  0.2118E+00  0.2759E+02  0.2759E+02
     15.656  0.9107E-01  0.1126E+00  0.2759E+02  0.2759E+02
     15.719  0.1011E+00  0.1641E+00  0.2760E+02  0.2761E+02
     15.782  0.2422E+00  0.3672E+00  0.2761E+02  0.2763E+02
     15.845  0.4926E+00  0.5600E+00  0.2765E+02  0.2766E+02
     15.908  0.5919E+00  0.4853E+00  0.2768E+02  0.2769E+02
     15.971  0.5436E+00  0.4256E+00  0.2772E+02  0.2772E+02
     16.034  0.7671E+00  0.7072E+00  0.2777E+02  0.2777E+02
     16.097  0.1115E+01  0.1095E+01  0.2784E+02  0.2783E+02
     16.160  0.9499E+00  0.9560E+00  0.2790E+02  0.2789E+02
     16.223  0.5506E+00  0.5571E+00  0.2793E+02  0.2793E+02
     16.286  0.3070E+00  0.3106E+00  0.2795E+02  0.2795E+02
     16.349  0.1424E+00  0.1434E+00  0.2796E+02  0.2796E+02
     16.412  0.5020E-01  0.5044E-01  0.2796E+02  0.2796E+02
     16.475  0.1532E-01  0.1538E-01  0.2796E+02  0.2796E+02
     16.538  0.3514E-02  0.3504E-02  0.2796E+02  0.2796E+02
     16.600  0.1005E-02  0.1003E-02  0.2796E+02  0.2796E+02
     16.663  0.0000E+00  0.0000E+00  0.2796E+02  0.2796E+02
     16.726  0.0000E+00  0.0000E+00  0.2796E+02  0.2796E+02
     16.789  0.0000E+00  0.0000E+00  0.2796E+02  0.2796E+02
     16.852  0.0000E+00  0.0000E+00  0.2796E+02  0.2796E+02
     16.915  0.0000E+00  0.0000E+00  0.2796E+02  0.2796E+02
     16.978  0.1949E-03  0.1951E-03  0.2796E+02  0.2796E+02
     17.041  0.4910E-03  0.4916E-03  0.2796E+02  0.2796E+02
     17.104  0.1723E-02  0.1725E-02  0.2796E+02  0.2796E+02
     17.167  0.5988E-02  0.5996E-02  0.2796E+02  0.2796E+02
     17.230  0.2015E-01  0.2017E-01  0.2796E+02  0.2796E+02
     17.293  0.6104E-01  0.6110E-01  0.2797E+02  0.2797E+02
     17.356  0.1384E+00  0.1385E+00  0.2798E+02  0.2798E+02
     17.419  0.1781E+00  0.1781E+00  0.2799E+02  0.2799E+02
     17.482  0.1158E+00  0.1157E+00  0.2800E+02  0.2800E+02
     17.545  0.4595E-01  0.4590E-01  0.2800E+02  0.2800E+02
     17.608  0.1456E-01  0.1454E-01  0.2800E+02  0.2800E+02
     17.671  0.4271E-02  0.4265E-02  0.2800E+02  0.2800E+02
     17.734  0.1224E-02  0.1222E-02  0.2800E+02  0.2800E+02
     17.797  0.0000E+00  0.0000E+00  0.2800E+02  0.2800E+02
     17.860  0.0000E+00  0.0000E+00  0.2800E+02  0.2800E+02
     17.922  0.0000E+00  0.0000E+00  0.2800E+02  0.2800E+02
     17.985  0.0000E+00  0.0000E+00  0.2800E+02  0.2800E+02
     18.048  0.0000E+00  0.0000E+00  0.2800E+02  0.2800E+02
     18.111  0.0000E+00  0.0000E+00  0.2800E+02  0.2800E+02
     18.174  0.0000E+00  0.0000E+00  0.2800E+02  0.2800E+02
     18.237  0.0000E+00  0.0000E+00  0.2800E+02  0.2800E+02
     18.23724628     -0.64867570  301      6.98000991      1.00000000
     -0.649  0.0000E+00  0.0000E+00  0.0000E+00  0.0000E+00  0.0000E+00  0.0000E+00  0.0000E+00  0.0000E+00  0.0000E+00  0.0000E+00  0.0000E+00  0.0000E+00  0.0000E+00  0.0000E+00  0.0000E+00  0.0000E+00  0.0000E+00  0.0000E+00
     -0.586  0.0000E+00  0.0000E+00  0.0000E+00  0.0000E+00  0.0000E+00  0.0000E+00  0.0000E+00  0.0000E+00  0.0000E+00  0.0000E+00  0.0000E+00  0.0000E+00  0.0000E+00  0.0000E+00  0.0000E+00  0.0000E+00  0.0000E+00  0.0000E+00
     -0.523  0.0000E+00  0.0000E+00  0.0000E+00  0.0000E+00  0.0000E+00  0.0000E+00  0.0000E+00  0.0000E+00  0.0000E+00  0.0000E+00  0.0000E+00  0.0000E+00  0.0000E+00  0.0000E+00  0.0000E+00  0.0000E+00  0.0000E+00  0.0000E+00
     -0.460  0.0000E+00  0.0000E+00  0.0000E+00  0.0000E+00  0.0000E+00  0.0000E+00  0.0000E+00  0.0000E+00  0.0000E+00  0.0000E+00  0.0000E+00  0.0000E+00  0.0000E+00  0.0000E+00  0.0000E+00  0.0000E+00  0.0000E+00  0.0000E+00
     -0.397  0.0000E+00  0.0000E+00  0.0000E+00  0.0000E+00  0.0000E+00  0.0000E+00  0.0000E+00  0.0000E+00  0.0000E+00  0.0000E+00  0.0000E+00  0.0000E+00  0.0000E+00  0.0000E+00  0.0000E+00  0.0000E+00  0.0000E+00  0.0000E+00
     -0.334  0.0000E+00  0.0000E+00  0.0000E+00  0.0000E+00  0.0000E+00  0.0000E+00  0.0000E+00  0.0000E+00  0.0000E+00  0.0000E+00  0.0000E+00  0.0000E+00  0.0000E+00  0.0000E+00  0.0000E+00  0.0000E+00  0.0000E+00  0.0000E+00
     -0.271  0.0000E+00  0.0000E+00  0.0000E+00  0.0000E+00  0.0000E+00  0.0000E+00  0.0000E+00  0.0000E+00  0.0000E+00  0.0000E+00  0.0000E+00  0.0000E+00  0.0000E+00  0.0000E+00  0.0000E+00  0.0000E+00  0.0000E+00  0.0000E+00
     -0.208  0.1720E-04  0.1718E-04  0.1023E-06  0.1021E-06  0.1023E-06  0.1021E-06  0.1023E-06  0.1021E-06  0.1795E-07  0.1793E-07  0.1795E-07  0.1793E-07  0.4482E-19  0.3518E-20  0.1795E-07  0.1793E-07  0.4482E-19  0.3518E-20
     -0.145  0.4334E-04  0.4329E-04  0.2577E-06  0.2574E-06  0.2577E-06  0.2574E-06  0.2577E-06  0.2574E-06  0.4522E-07  0.4518E-07  0.4522E-07  0.4518E-07  0.1129E-18  0.8866E-20  0.4522E-07  0.4518E-07  0.1129E-18  0.8866E-20
     -0.082  0.1523E-03  0.1521E-03  0.9053E-06  0.9041E-06  0.9053E-06  0.9041E-06  0.9053E-06  0.9041E-06  0.1589E-06  0.1587E-06  0.1589E-06  0.1587E-06  0.3967E-18  0.3114E-19  0.1589E-06  0.1587E-06  0.3967E-18  0.3114E-19
     -0.019  0.5312E-03  0.5306E-03  0.3159E-05  0.3155E-05  0.3159E-05  0.3155E-05  0.3159E-05  0.3155E-05  0.5543E-06  0.5538E-06  0.5543E-06  0.5538E-06  0.1384E-17  0.1087E-18  0.5543E-06  0.5538E-06  0.1384E-17  0.1087E-18
      0.044  0.1811E-02  0.1809E-02  0.1077E-04  0.1075E-04  0.1077E-04  0.1075E-04  0.1077E-04  0.1075E-04  0.1890E-05  0.1888E-05  0.1890E-05  0.1888E-05  0.4719E-17  0.3705E-18  0.1890E-05  0.1888E-05  0.4719E-17  0.3705E-18
      0.107  0.5716E-02  0.5710E-02  0.3399E-04  0.3395E-04  0.3399E-04  0.3395E-04  0.3399E-04  0.3395E-04  0.5964E-05  0.5959E-05  0.5964E-05  0.5959E-05  0.1489E-16  0.1169E-17  0.5964E-05  0.5959E-05  0.1489E-16  0.1169E-17
      0.170  0.1440E-01  0.1439E-01  0.8562E-04  0.8555E-04  0.8562E-04  0.8555E-04  0.8562E-04  0.8555E-04  0.1502E-04  0.1502E-04  0.1502E-04  0.1502E-04  0.3752E-16  0.2947E-17  0.1502E-04  0.1502E-04  0.3752E-16  0.2947E-17
      0.233  0.2215E-01  0.2215E-01  0.1317E-03  0.1317E-03  0.1317E-03  0.1317E-03  0.1317E-03  0.1317E-03  0.2312E-04  0.2312E-04  0.2312E-04  0.2312E-04  0.5773E-16  0.4538E-17  0.2312E-04  0.2312E-04  0.5773E-16  0.4538E-17
      0.296  0.1727E-01  0.1728E-01  0.1036E-03  0.1037E-03  0.1036E-03  0.1037E-03  0.1036E-03  0.1037E-03  0.1848E-04  0.1850E-04  0.1848E-04  0.1850E-04  0.4587E-06  0.4580E-06  0.1848E-04  0.1850E-04  0.4587E-06  0.4580E-06
      0.359  0.7737E-02  0.7746E-02  0.4830E-04  0.4834E-04  0.4830E-04  0.4834E-04  0.4830E-04  0.4834E-04  0.9238E-05  0.9249E-05  0.9238E-05  0.9249E-05  0.1156E-05  0.1154E-05  0.9238E-05  0.9249E-05  0.1156E-05  0.1154E-05
      0.422  0.3015E-02  0.3018E-02  0.2597E-04  0.2597E-04  0.2597E-04  0.2597E-04  0.2597E-04  0.2597E-04  0.7237E-05  0.7237E-05  0.7237E-05  0.7237E-05  0.4058E-05  0.4051E-05  0.7237E-05  0.7237E-05  0.4058E-05  0.4051E-05
      0.484  0.2516E-02  0.2515E-02  0.4296E-04  0.4291E-04  0.4296E-04  0.4291E-04  0.4296E-04  0.4291E-04  0.1688E-04  0.1686E-04  0.1688E-04  0.1686E-04  0.1413E-04  0.1411E-04  0.1688E-04  0.1686E-04  0.1413E-04  0.1411E-04
      0.547  0.6215E-02  0.6207E-02  0.1318E-03  0.1316E-03  0.1318E-03  0.1316E-03  0.1318E-03  0.1316E-03  0.5477E-04  0.5471E-04  0.5477E-04  0.5471E-04  0.4788E-04  0.4781E-04  0.5477E-04  0.5471E-04  0.4788E-04  0.4781E-04
      0.610  0.1857E-01  0.1855E-01  0.4041E-03  0.4036E-03  0.4041E-03  0.4036E-03  0.4041E-03  0.4036E-03  0.1688E-03  0.1687E-03  0.1688E-03  0.1687E-03  0.1482E-03  0.1480E-03  0.1688E-03  0.1687E-03  0.1482E-03  0.1480E-03
      0.673  0.4447E-01  0.4444E-01  0.9680E-03  0.9672E-03  0.9680E-03  0.9672E-03  0.9680E-03  0.9672E-03  0.4061E-03  0.4060E-03  0.4061E-03  0.4060E-03  0.3548E-03  0.3545E-03  0.4061E-03  0.4060E-03  0.3548E-03  0.3545E-03
      0.736  0.6257E-01  0.6258E-01  0.1362E-02  0.1362E-02  0.1362E-02  0.1362E-02  0.1362E-02  0.1362E-02  0.5735E-03  0.5737E-03  0.5735E-03  0.5737E-03  0.4991E-03  0.4991E-03  0.5735E-03  0.5737E-03  0.4991E-03  0.4991E-03
      0.799  0.4449E-01  0.4453E-01  0.9712E-03  0.9719E-03  0.9712E-03  0.9719E-03  0.9712E-03  0.9719E-03  0.4211E-03  0.4216E-03  0.4211E-03  0.4216E-03  0.3544E-03  0.3546E-03  0.4211E-03  0.4216E-03  0.3544E-03  0.3546E-03
      0.862  0.1935E-01  0.1937E-01  0.4322E-03  0.4326E-03  0.4322E-03  0.4326E-03  0.4322E-03  0.4326E-03  0.2453E-03  0.2446E-03  0.2453E-03  0.2446E-03  0.1676E-03  0.1522E-03  0.2453E-03  0.2446E-03  0.1676E-03  0.1522E-03
      0.925  0.9107E-02  0.9113E-02  0.2363E-03  0.2364E-03  0.2363E-03  0.2364E-03  0.2363E-03  0.2364E-03  0.3271E-03  0.3278E-03  0.3271E-03  0.3278E-03  0.1039E-03  0.1193E-03  0.3271E-03  0.3278E-03  0.1039E-03  0.1193E-03
      0.988  0.1206E-01  0.1205E-01  0.3872E-03  0.3868E-03  0.3872E-03  0.3868E-03  0.3872E-03  0.3868E-03  0.9205E-03  0.9195E-03  0.9205E-03  0.9195E-03  0.2100E-03  0.2093E-03  0.9205E-03  0.9195E-03  0.2100E-03  0.2093E-03
      1.051  0.2915E-01  0.2912E-01  0.9804E-03  0.9794E-03  0.9804E-03  0.9794E-03  0.9804E-03  0.9794E-03  0.2646E-02  0.2644E-02  0.2646E-02  0.2644E-02  0.6721E-03  0.6695E-03  0.2646E-02  0.2644E-02  0.6721E-03  0.6695E-03
      1.114  0.5360E-01  0.5358E-01  0.1808E-02  0.1807E-02  0.1808E-02  0.1807E-02  0.1808E-02  0.1807E-02  0.5764E-02  0.5761E-02  0.5764E-02  0.5761E-02  0.2114E-02  0.2106E-02  0.5764E-02  0.5761E-02  0.2114E-02  0.2106E-02
      1.177  0.5581E-01  0.5582E-01  0.1854E-02  0.1854E-02  0.1854E-02  0.1854E-02  0.1854E-02  0.1854E-02  0.1023E-01  0.1022E-01  0.1023E-01  0.1022E-01  0.6419E-02  0.6393E-02  0.1023E-01  0.1022E-01  0.6419E-02  0.6393E-02
      1.240  0.4216E-01  0.4217E-01  0.1319E-02  0.1320E-02  0.1319E-02  0.1320E-02  0.1319E-02  0.1320E-02  0.2125E-01  0.2123E-01  0.2125E-01  0.2123E-01  0.1898E-01  0.1891E-01  0.2125E-01  0.2123E-01  0.1898E-01  0.1891E-01
      1.303  0.4148E-01  0.4147E-01  0.1217E-02  0.1217E-02  0.1217E-02  0.1217E-02  0.1217E-02  0.1217E-02  0.4638E-01  0.4633E-01  0.4638E-01  0.4633E-01  0.4449E-01  0.4438E-01  0.4638E-01  0.4633E-01  0.4449E-01  0.4438E-01
      1.366  0.5209E-01  0.5206E-01  0.1709E-02  0.1708E-02  0.1709E-02  0.1708E-02  0.1709E-02  0.1708E-02  0.8568E-01  0.8561E-01  0.8568E-01  0.8561E-01  0.6809E-01  0.6803E-01  0.8568E-01  0.8561E-01  0.6809E-01  0.6803E-01
      1.429  0.7785E-01  0.7779E-01  0.3182E-02  0.3178E-02  0.3182E-02  0.3178E-02  0.3182E-02  0.3178E-02  0.1339E+00  0.1339E+00  0.1339E+00  0.1339E+00  0.8546E-01  0.8538E-01  0.1339E+00  0.1339E+00  0.8546E-01  0.8538E-01
      1.492  0.1117E+00  0.1116E+00  0.5217E-02  0.5214E-02  0.5217E-02  0.5214E-02  0.5217E-02  0.5214E-02  0.1832E+00  0.1831E+00  0.1832E+00  0.1831E+00  0.1307E+00  0.1305E+00  0.1832E+00  0.1831E+00  0.1307E+00  0.1305E+00
      1.555  0.1192E+00  0.1192E+00  0.6275E-02  0.6273E-02  0.6275E-02  0.6273E-02  0.6275E-02  0.6273E-02  0.2385E+00  0.2384E+00  0.2385E+00  0.2384E+00  0.1792E+00  0.1791E+00  0.2385E+00  0.2384E+00  0.1792E+00  0.1791E+00
      1.618  0.1229E+00  0.1229E+00  0.7587E-02  0.7583E-02  0.7587E-02  0.7583E-02  0.7587E-02  0.7583E-02  0.3124E+00  0.3123E+00  0.3124E+00  0.3123E+00  0.1931E+00  0.1931E+00  0.3124E+00  0.3123E+00  0.1931E+00  0.1931E+00
      1.681  0.1371E+00  0.1371E+00  0.9732E-02  0.9727E-02  0.9732E-02  0.9727E-02  0.9732E-02  0.9727E-02  0.3546E+00  0.3546E+00  0.3546E+00  0.3546E+00  0.2036E+00  0.2035E+00  0.3546E+00  0.3546E+00  0.2036E+00  0.2035E+00
      1.744  0.1208E+00  0.1208E+00  0.9898E-02  0.9898E-02  0.9898E-02  0.9898E-02  0.9898E-02  0.9898E-02  0.3251E+00  0.3252E+00  0.3251E+00  0.3252E+00  0.2073E+00  0.2073E+00  0.3251E+00  0.3252E+00  0.2073E+00  0.2073E+00
      1.806  0.8925E-01  0.8929E-01  0.9167E-02  0.9164E-02  0.9167E-02  0.9164E-02  0.9167E-02  0.9164E-02  0.3046E+00  0.3046E+00  0.3046E+00  0.3046E+00  0.2324E+00  0.2322E+00  0.3046E+00  0.3046E+00  0.2324E+00  0.2322E+00
      1.869  0.7249E-01  0.7252E-01  0.9369E-02  0.9368E-02  0.9369E-02  0.9368E-02  0.9369E-02  0.9368E-02  0.3134E+00  0.3134E+00  0.3134E+00  0.3134E+00  0.2875E+00  0.2874E+00  0.3134E+00  0.3134E+00  0.2875E+00  0.2874E+00
      1.932  0.5595E-01  0.5599E-01  0.8656E-02  0.8657E-02  0.8656E-02  0.8657E-02  0.8656E-02  0.8657E-02  0.2847E+00  0.2848E+00  0.2847E+00  0.2848E+00  0.2629E+00  0.2631E+00  0.2847E+00  0.2848E+00  0.2629E+00  0.2631E+00
      1.995  0.4100E-01  0.4103E-01  0.8364E-02  0.8362E-02  0.8364E-02  0.8362E-02  0.8364E-02  0.8362E-02  0.2608E+00  0.2608E+00  0.2608E+00  0.2608E+00  0.2006E+00  0.2007E+00  0.2608E+00  0.2608E+00  0.2006E+00  0.2007E+00
      2.058  0.3013E-01  0.3016E-01  0.8796E-02  0.8793E-02  0.8796E-02  0.8793E-02  0.8796E-02  0.8793E-02  0.2542E+00  0.2542E+00  0.2542E+00  0.2542E+00  0.1794E+00  0.1794E+00  0.2542E+00  0.2542E+00  0.1794E+00  0.1794E+00
      2.121  0.2208E-01  0.2208E-01  0.9503E-02  0.9498E-02  0.9503E-02  0.9498E-02  0.9503E-02  0.9498E-02  0.2488E+00  0.2488E+00  0.2488E+00  0.2488E+00  0.2097E+00  0.2095E+00  0.2488E+00  0.2488E+00  0.2097E+00  0.2095E+00
      2.184  0.1991E-01  0.1992E-01  0.1016E-01  0.1015E-01  0.1016E-01  0.1015E-01  0.1016E-01  0.1015E-01  0.2294E+00  0.2294E+00  0.2294E+00  0.2294E+00  0.2666E+00  0.2665E+00  0.2294E+00  0.2294E+00  0.2666E+00  0.2665E+00
      2.247  0.1815E-01  0.1816E-01  0.9709E-02  0.9711E-02  0.9709E-02  0.9711E-02  0.9709E-02  0.9711E-02  0.1966E+00  0.1966E+00  0.1966E+00  0.1966E+00  0.2860E+00  0.2860E+00  0.1966E+00  0.1966E+00  0.2860E+00  0.2860E+00
      2.310  0.1916E-01  0.1917E-01  0.9024E-02  0.9029E-02  0.9024E-02  0.9029E-02  0.9024E-02  0.9029E-02  0.2106E+00  0.2105E+00  0.2106E+00  0.2105E+00  0.2826E+00  0.2827E+00  0.2106E+00  0.2105E+00  0.2826E+00  0.2827E+00
      2.373  0.2038E-01  0.2039E-01  0.7865E-02  0.7870E-02  0.7865E-02  0.7870E-02  0.7865E-02  0.7870E-02  0.2601E+00  0.2601E+00  0.2601E+00  0.2601E+00  0.2871E+00  0.2871E+00  0.2601E+00  0.2601E+00  0.2871E+00  0.2871E+00
      2.436  0.1721E-01  0.1722E-01  0.6581E-02  0.6584E-02  0.6581E-02  0.6584E-02  0.6581E-02  0.6584E-02  0.2848E+00  0.2848E+00  0.2848E+00  0.2848E+00  0.3039E+00  0.3039E+00  0.2848E+00  0.2848E+00  0.3039E+00  0.3039E+00
      2.499  0.1490E-01  0.1490E-01  0.5909E-02  0.5907E-02  0.5909E-02  0.5907E-02  0.5909E-02  0.5907E-02  0.2620E+00  0.2621E+00  0.2620E+00  0.2621E+00  0.2812E+00  0.2813E+00  0.2620E+00  0.2621E+00  0.2812E+00  0.2813E+00