   4   4   1   0
  0.1402730E+02  0.3828348E-09  0.3828348E-09  0.3828348E-09  0.5000000E-15
  1.000000000000000E-004
  CAR 
 unknown system                          
     26.70038485      0.06370537  301     13.11344149      1.00000000
      0.064  0.0000E+00  0.0000E+00  0.0000E+00  0.0000E+00
      0.152  0.0000E+00  0.0000E+00  0.0000E+00  0.0000E+00
      0.241  0.0000E+00  0.0000E+00  0.0000E+00  0.0000E+00
      0.330  0.0000E+00  0.0000E+00  0.0000E+00  0.0000E+00
      0.419  0.0000E+00  0.0000E+00  0.0000E+00  0.0000E+00
      0.508  0.0000E+00  0.0000E+00  0.0000E+00  0.0000E+00
      0.596  0.0000E+00  0.0000E+00  0.0000E+00  0.0000E+00
      0.685  0.0000E+00  0.0000E+00  0.0000E+00  0.0000E+00
      0.774  0.0000E+00  0.0000E+00  0.0000E+00  0.0000E+00
      0.863  0.1108E-03  0.1093E-03  0.9838E-05  0.9700E-05
      0.952  0.5426E-03  0.5350E-03  0.5802E-04  0.5721E-04
      1.040  0.3176E-02  0.3132E-02  0.3400E-03  0.3353E-03
      1.129  0.1781E-01  0.1757E-01  0.1921E-02  0.1895E-02
      1.218  0.8021E-01  0.7942E-01  0.9043E-02  0.8947E-02
      1.307  0.1718E+00  0.1716E+00  0.2430E-01  0.2418E-01
      1.396  0.1095E+00  0.1103E+00  0.3402E-01  0.3398E-01
      1.484  0.2784E-01  0.2819E-01  0.3649E-01  0.3648E-01
      1.573  0.5327E-02  0.5395E-02  0.3696E-01  0.3696E-01
      1.662  0.1894E-02  0.1892E-02  0.3713E-01  0.3713E-01
      1.751  0.5956E-02  0.5873E-02  0.3767E-01  0.3767E-01
      1.839  0.3404E-01  0.3358E-01  0.4070E-01  0.4065E-01
      1.928  0.1683E+00  0.1664E+00  0.5564E-01  0.5542E-01
      2.017  0.4698E+00  0.4679E+00  0.9736E-01  0.9697E-01
      2.106  0.4159E+00  0.4183E+00  0.1343E+00  0.1341E+00
      2.195  0.1268E+00  0.1283E+00  0.1455E+00  0.1455E+00
      2.283  0.2509E-01  0.2542E-01  0.1478E+00  0.1478E+00
      2.372  0.8246E-02  0.8250E-02  0.1485E+00  0.1485E+00
      2.461  0.2319E-01  0.2288E-01  0.1506E+00  0.1506E+00
      2.550  0.1211E+00  0.1196E+00  0.1614E+00  0.1612E+00
      2.639  0.4067E+00  0.4042E+00  0.1975E+00  0.1971E+00
      2.727  0.4771E+00  0.4789E+00  0.2399E+00  0.2396E+00
      2.816  0.1776E+00  0.1796E+00  0.2556E+00  0.2556E+00
      2.905  0.4772E-01  0.4805E-01  0.2599E+00  0.2598E+00
      2.994  0.6568E-01  0.6508E-01  0.2657E+00  0.2656E+00
      3.083  0.1753E+00  0.1744E+00  0.2814E+00  0.2812E+00
      3.171  0.2381E+00  0.2377E+00  0.3025E+00  0.3023E+00
      3.260  0.4076E+00  0.4056E+00  0.3387E+00  0.3383E+00
      3.349  0.5106E+00  0.5119E+00  0.3841E+00  0.3838E+00
      3.438  0.2150E+00  0.2172E+00  0.4031E+00  0.4031E+00
      3.526  0.7425E-01  0.7441E-01  0.4098E+00  0.4097E+00
      3.615  0.1755E+00  0.1734E+00  0.4253E+00  0.4251E+00
      3.704  0.7651E+00  0.7572E+00  0.4934E+00  0.4925E+00
      3.793  0.1734E+01  0.1730E+01  0.6474E+00  0.6461E+00
      3.882  0.1408E+01  0.1414E+01  0.7725E+00  0.7717E+00
      3.970  0.1188E+01  0.1186E+01  0.8780E+00  0.8770E+00
      4.059  0.1276E+01  0.1279E+01  0.9913E+00  0.9905E+00
      4.148  0.9193E+00  0.9228E+00  0.1073E+01  0.1072E+01
      4.237  0.6149E+00  0.6150E+00  0.1128E+01  0.1127E+01
      4.326  0.1139E+01  0.1130E+01  0.1229E+01  0.1228E+01
      4.414  0.2533E+01  0.2523E+01  0.1454E+01  0.1452E+01
      4.503  0.3328E+01  0.3325E+01  0.1749E+01  0.1747E+01
      4.592  0.3334E+01  0.3340E+01  0.2045E+01  0.2044E+01
      4.681  0.2495E+01  0.2499E+01  0.2267E+01  0.2265E+01
      4.770  0.3068E+01  0.3059E+01  0.2540E+01  0.2537E+01
      4.858  0.3559E+01  0.3564E+01  0.2856E+01  0.2854E+01
      4.947  0.2386E+01  0.2390E+01  0.3068E+01  0.3067E+01
      5.036  0.2342E+01  0.2342E+01  0.3276E+01  0.3275E+01
      5.125  0.1925E+01  0.1929E+01  0.3447E+01  0.3446E+01
      5.213  0.2169E+01  0.2160E+01  0.3640E+01  0.3638E+01
      5.302  0.3963E+01  0.3951E+01  0.3992E+01  0.3989E+01
      5.391  0.4251E+01  0.4262E+01  0.4370E+01  0.4368E+01
      5.480  0.2087E+01  0.2100E+01  0.4555E+01  0.4554E+01
      5.569  0.1583E+01  0.1581E+01  0.4696E+01  0.4695E+01
      5.657  0.1600E+01  0.1603E+01  0.4838E+01  0.4837E+01
      5.746  0.1167E+01  0.1166E+01  0.4943E+01  0.4942E+01
      5.835  0.1900E+01  0.1892E+01  0.5112E+01  0.5110E+01
      5.924  0.2834E+01  0.2830E+01  0.5363E+01  0.5361E+01
      6.013  0.3026E+01  0.3028E+01  0.5632E+01  0.5630E+01
      6.101  0.2595E+01  0.2599E+01  0.5863E+01  0.5861E+01
      6.190  0.2311E+01  0.2311E+01  0.6068E+01  0.6066E+01
      6.279  0.2404E+01  0.2404E+01  0.6281E+01  0.6280E+01
      6.368  0.1867E+01  0.1872E+01  0.6447E+01  0.6446E+01
      6.457  0.1777E+01  0.1772E+01  0.6605E+01  0.6604E+01
      6.545  0.3050E+01  0.3038E+01  0.6876E+01  0.6874E+01
      6.634  0.4439E+01  0.4432E+01  0.7271E+01  0.7268E+01
      6.723  0.4524E+01  0.4530E+01  0.7673E+01  0.7670E+01
      6.812  0.2801E+01  0.2817E+01  0.7921E+01  0.7920E+01
      6.900  0.1311E+01  0.1315E+01  0.8038E+01  0.8037E+01
      6.989  0.1573E+01  0.1566E+01  0.8178E+01  0.8177E+01
      7.078  0.3103E+01  0.3086E+01  0.8454E+01  0.8451E+01
      7.167  0.5282E+01  0.5271E+01  0.8923E+01  0.8919E+01
      7.256  0.5048E+01  0.5062E+01  0.9372E+01  0.9369E+01
      7.344  0.3385E+01  0.3393E+01  0.9672E+01  0.9670E+01
      7.433  0.2921E+01  0.2922E+01  0.9931E+01  0.9930E+01
      7.522  0.3120E+01  0.3115E+01  0.1021E+02  0.1021E+02
      7.611  0.4349E+01  0.4337E+01  0.1060E+02  0.1059E+02
      7.700  0.4968E+01  0.4971E+01  0.1104E+02  0.1103E+02
      7.788  0.4257E+01  0.4263E+01  0.1142E+02  0.1141E+02
      7.877  0.3082E+01  0.3093E+01  0.1169E+02  0.1169E+02
      7.966  0.1997E+01  0.2000E+01  0.1187E+02  0.1187E+02
      8.055  0.2732E+01  0.2720E+01  0.1211E+02  0.1211E+02
      8.143  0.4013E+01  0.4011E+01  0.1247E+02  0.1246E+02
      8.232  0.3071E+01  0.3081E+01  0.1274E+02  0.1274E+02
      8.321  0.2228E+01  0.2231E+01  0.1294E+02  0.1294E+02
      8.410  0.2086E+01  0.2086E+01  0.1312E+02  0.1312E+02
      8.499  0.2043E+01  0.2043E+01  0.1330E+02  0.1330E+02
      8.587  0.1781E+01  0.1786E+01  0.1346E+02  0.1346E+02
      8.676  0.1302E+01  0.1300E+01  0.1358E+02  0.1358E+02
      8.765  0.2447E+01  0.2433E+01  0.1380E+02  0.1379E+02
      8.854  0.4005E+01  0.4000E+01  0.1415E+02  0.1415E+02
      8.943  0.3718E+01  0.3723E+01  0.1448E+02  0.1448E+02
      9.031  0.3476E+01  0.3476E+01  0.1479E+02  0.1479E+02
      9.120  0.3331E+01  0.3332E+01  0.1509E+02  0.1508E+02
      9.209  0.3219E+01  0.3221E+01  0.1537E+02  0.1537E+02
      9.298  0.2603E+01  0.2611E+01  0.1560E+02  0.1560E+02
      9.387  0.1547E+01  0.1552E+01  0.1574E+02  0.1574E+02
      9.475  0.1644E+01  0.1640E+01  0.1589E+02  0.1589E+02
      9.564  0.1924E+01  0.1925E+01  0.1606E+02  0.1606E+02
      9.653  0.1858E+01  0.1854E+01  0.1622E+02  0.1622E+02
      9.742  0.2591E+01  0.2588E+01  0.1645E+02  0.1645E+02
      9.830  0.2280E+01  0.2285E+01  0.1666E+02  0.1666E+02
      9.919  0.2548E+01  0.2537E+01  0.1688E+02  0.1688E+02
     10.008  0.4423E+01  0.4414E+01  0.1728E+02  0.1727E+02
     10.097  0.3931E+01  0.3945E+01  0.1763E+02  0.1762E+02
     10.186  0.1752E+01  0.1766E+01  0.1778E+02  0.1778E+02
     10.274  0.7787E+00  0.7799E+00  0.1785E+02  0.1785E+02
     10.363  0.1037E+01  0.1032E+01  0.1794E+02  0.1794E+02
     10.452  0.1897E+01  0.1888E+01  0.1811E+02  0.1811E+02
     10.541  0.3153E+01  0.3145E+01  0.1839E+02  0.1839E+02
     10.630  0.4363E+01  0.4355E+01  0.1878E+02  0.1878E+02
     10.718  0.4397E+01  0.4406E+01  0.1917E+02  0.1917E+02
     10.807  0.3346E+01  0.3348E+01  0.1947E+02  0.1947E+02
     10.896  0.3491E+01  0.3492E+01  0.1978E+02  0.1978E+02
     10.985  0.2887E+01  0.2894E+01  0.2003E+02  0.2003E+02
     11.074  0.1985E+01  0.1990E+01  0.2021E+02  0.2021E+02
     11.162  0.1807E+01  0.1804E+01  0.2037E+02  0.2037E+02
     11.251  0.2725E+01  0.2717E+01  0.2061E+02  0.2061E+02
     11.340  0.2748E+01  0.2756E+01  0.2086E+02  0.2086E+02
     11.429  0.1282E+01  0.1293E+01  0.2097E+02  0.2097E+02
     11.517  0.5416E+00  0.5422E+00  0.2102E+02  0.2102E+02
     11.606  0.1044E+01  0.1037E+01  0.2111E+02  0.2111E+02
     11.695  0.1866E+01  0.1864E+01  0.2128E+02  0.2128E+02
     11.784  0.1631E+01  0.1635E+01  0.2142E+02  0.2142E+02
     11.873  0.1018E+01  0.1024E+01  0.2151E+02  0.2151E+02
     11.961  0.3644E+00  0.3684E+00  0.2155E+02  0.2155E+02
     12.050  0.7427E-01  0.7533E-01  0.2155E+02  0.2155E+02
     12.139  0.1266E-01  0.1284E-01  0.2156E+02  0.2156E+02
     12.228  0.1556E-03  0.1537E-03  0.2156E+02  0.2156E+02
     12.317  0.7628E-03  0.7535E-03  0.2156E+02  0.2156E+02
     12.405  0.4485E-02  0.4431E-02  0.2156E+02  0.2156E+02
     12.494  0.2605E-01  0.2574E-01  0.2156E+02  0.2156E+02
     12.583  0.1342E+00  0.1328E+00  0.2157E+02  0.2157E+02
     12.672  0.4324E+00  0.4302E+00  0.2161E+02  0.2161E+02
     12.761  0.4986E+00  0.4999E+00  0.2165E+02  0.2165E+02
     12.849  0.3607E+00  0.3599E+00  0.2168E+02  0.2168E+02
     12.938  0.8101E+00  0.8045E+00  0.2176E+02  0.2176E+02
     13.027  0.1377E+01  0.1375E+01  0.2188E+02  0.2188E+02
     13.116  0.1398E+01  0.1399E+01  0.2200E+02  0.2200E+02
     13.204  0.9031E+00  0.9093E+00  0.2208E+02  0.2208E+02
     13.293  0.2688E+00  0.2717E+00  0.2211E+02  0.2211E+02
     13.382  0.1252E+00  0.1247E+00  0.2212E+02  0.2212E+02
     13.471  0.3912E+00  0.3869E+00  0.2215E+02  0.2215E+02
     13.560  0.9805E+00  0.9771E+00  0.2224E+02  0.2224E+02
     13.648  0.7727E+00  0.7782E+00  0.2231E+02  0.2231E+02
     13.737  0.2209E+00  0.2238E+00  0.2233E+02  0.2233E+02
     13.826  0.4863E-01  0.4912E-01  0.2233E+02  0.2233E+02
     13.915  0.4736E-01  0.4681E-01  0.2234E+02  0.2234E+02
     14.004  0.1930E+00  0.1905E+00  0.2235E+02  0.2235E+02
     14.092  0.4924E+00  0.4904E+00  0.2240E+02  0.2240E+02
     14.181  0.3921E+00  0.3952E+00  0.2243E+02  0.2243E+02
     14.270  0.1516E+00  0.1527E+00  0.2245E+02  0.2245E+02
     14.359  0.2482E+00  0.2457E+00  0.2247E+02  0.2247E+02
     14.448  0.8613E+00  0.8547E+00  0.2255E+02  0.2254E+02
     14.536  0.1422E+01  0.1422E+01  0.2267E+02  0.2267E+02
     14.625  0.8871E+00  0.8935E+00  0.2275E+02  0.2275E+02
     14.714  0.2509E+00  0.2539E+00  0.2277E+02  0.2277E+02
     14.803  0.5042E-01  0.5105E-01  0.2278E+02  0.2278E+02
     14.891  0.2021E-01  0.2007E-01  0.2278E+02  0.2278E+02
     14.980  0.8376E-01  0.8258E-01  0.2279E+02  0.2279E+02
     15.069  0.3986E+00  0.3941E+00  0.2282E+02  0.2282E+02
     15.158  0.9913E+00  0.9882E+00  0.2291E+02  0.2291E+02
     15.247  0.7540E+00  0.7596E+00  0.2298E+02  0.2298E+02
     15.335  0.2124E+00  0.2151E+00  0.2300E+02  0.2300E+02
     15.424  0.5318E-01  0.5357E-01  0.2300E+02  0.2300E+02
     15.513  0.8446E-01  0.8356E-01  0.2301E+02  0.2301E+02
     15.602  0.3752E+00  0.3713E+00  0.2304E+02  0.2304E+02
     15.691  0.9752E+00  0.9720E+00  0.2313E+02  0.2313E+02
     15.779  0.7893E+00  0.7942E+00  0.2320E+02  0.2320E+02
     15.868  0.2628E+00  0.2648E+00  0.2322E+02  0.2322E+02
     15.957  0.2440E+00  0.2416E+00  0.2324E+02  0.2324E+02
     16.046  0.7441E+00  0.7379E+00  0.2331E+02  0.2331E+02
     16.135  0.1014E+01  0.1017E+01  0.2340E+02  0.2340E+02
     16.223  0.4899E+00  0.4941E+00  0.2344E+02  0.2344E+02
     16.312  0.4551E+00  0.4521E+00  0.2348E+02  0.2348E+02
     16.401  0.9833E+00  0.9798E+00  0.2357E+02  0.2357E+02
     16.490  0.7927E+00  0.7983E+00  0.2364E+02  0.2364E+02
     16.578  0.2305E+00  0.2336E+00  0.2366E+02  0.2366E+02
     16.667  0.4386E-01  0.4453E-01  0.2367E+02  0.2367E+02
     16.756  0.7584E-02  0.7702E-02  0.2367E+02  0.2367E+02
     16.845  0.0000E+00  0.0000E+00  0.2367E+02  0.2367E+02
     16.934  0.1007E-03  0.9899E-04  0.2367E+02  0.2367E+02
     17.022  0.4935E-03  0.4853E-03  0.2367E+02  0.2367E+02
     17.111  0.3799E-02  0.3738E-02  0.2367E+02  0.2367E+02
     17.200  0.2140E-01  0.2105E-01  0.2367E+02  0.2367E+02
     17.289  0.1175E+00  0.1158E+00  0.2368E+02  0.2368E+02
     17.378  0.4951E+00  0.4898E+00  0.2372E+02  0.2372E+02
     17.466  0.1189E+01  0.1183E+01  0.2383E+02  0.2383E+02
     17.555  0.1846E+01  0.1843E+01  0.2399E+02  0.2399E+02
     17.644  0.1699E+01  0.1703E+01  0.2414E+02  0.2414E+02
     17.733  0.1485E+01  0.1485E+01  0.2428E+02  0.2427E+02
     17.821  0.1295E+01  0.1300E+01  0.2439E+02  0.2439E+02
     17.910  0.6599E+00  0.6642E+00  0.2445E+02  0.2445E+02
     17.999  0.5587E+00  0.5580E+00  0.2450E+02  0.2450E+02
     18.088  0.4553E+00  0.4581E+00  0.2454E+02  0.2454E+02
     18.177  0.1411E+00  0.1429E+00  0.2455E+02  0.2455E+02
     18.265  0.2763E-01  0.2806E-01  0.2456E+02  0.2456E+02
     18.354  0.4804E-02  0.4880E-02  0.2456E+02  0.2456E+02
     18.443  0.0000E+00  0.0000E+00  0.2456E+02  0.2456E+02
     18.532  0.0000E+00  0.0000E+00  0.2456E+02  0.2456E+02
     18.621  0.4923E-04  0.4853E-04  0.2456E+02  0.2456E+02
     18.709  0.5722E-03  0.5639E-03  0.2456E+02  0.2456E+02
     18.798  0.3693E-02  0.3498E-02  0.2456E+02  0.2456E+02
     18.887  0.2092E-01  0.2076E-01  0.2456E+02  0.2456E+02
     18.976  0.1161E+00  0.1145E+00  0.2457E+02  0.2457E+02
     19.065  0.5274E+00  0.5215E+00  0.2461E+02  0.2461E+02
     19.153  0.1582E+01  0.1571E+01  0.2476E+02  0.2475E+02
     19.242  0.2774E+01  0.2766E+01  0.2500E+02  0.2500E+02
     19.331  0.2698E+01  0.2707E+01  0.2524E+02  0.2524E+02
     19.420  0.1146E+01  0.1159E+01  0.2534E+02  0.2534E+02
     19.508  0.2609E+00  0.2646E+00  0.2537E+02  0.2537E+02
     19.597  0.8167E-01  0.8172E-01  0.2537E+02  0.2537E+02
     19.686  0.2069E+00  0.2039E+00  0.2539E+02  0.2539E+02
     19.775  0.7385E+00  0.7320E+00  0.2546E+02  0.2546E+02
     19.864  0.9995E+00  0.1003E+01  0.2555E+02  0.2555E+02
     19.952  0.4123E+00  0.4177E+00  0.2558E+02  0.2558E+02
     20.041  0.9502E-01  0.9634E-01  0.2559E+02  0.2559E+02
     20.130  0.6150E-01  0.6110E-01  0.2560E+02  0.2560E+02
     20.219  0.2436E+00  0.2404E+00  0.2562E+02  0.2562E+02
     20.308  0.8625E+00  0.8562E+00  0.2570E+02  0.2569E+02
     20.396  0.1255E+01  0.1256E+01  0.2581E+02  0.2581E+02
     20.485  0.8882E+00  0.8926E+00  0.2589E+02  0.2589E+02
     20.574  0.3550E+00  0.3586E+00  0.2592E+02  0.2592E+02
     20.663  0.8643E-01  0.8735E-01  0.2593E+02  0.2593E+02
     20.752  0.5680E-01  0.5626E-01  0.2593E+02  0.2593E+02
     20.840  0.2114E+00  0.2088E+00  0.2595E+02  0.2595E+02
     20.929  0.5046E+00  0.5031E+00  0.2599E+02  0.2599E+02
     21.018  0.3725E+00  0.3756E+00  0.2603E+02  0.2603E+02
     21.107  0.1548E+00  0.1556E+00  0.2604E+02  0.2604E+02
     21.195  0.2817E+00  0.2796E+00  0.2607E+02  0.2607E+02
     21.284  0.6664E+00  0.6640E+00  0.2613E+02  0.2612E+02
     21.373  0.7861E+00  0.7863E+00  0.2620E+02  0.2619E+02
     21.462  0.5327E+00  0.5357E+00  0.2624E+02  0.2624E+02
     21.551  0.1944E+00  0.1957E+00  0.2626E+02  0.2626E+02
     21.639  0.2232E+00  0.2209E+00  0.2628E+02  0.2628E+02
     21.728  0.7506E+00  0.7441E+00  0.2635E+02  0.2635E+02
     21.817  0.1271E+01  0.1270E+01  0.2646E+02  0.2646E+02
     21.906  0.1328E+01  0.1327E+01  0.2658E+02  0.2658E+02
     21.995  0.1398E+01  0.1398E+01  0.2670E+02  0.2670E+02
     22.083  0.1319E+01  0.1318E+01  0.2682E+02  0.2682E+02
     22.172  0.8908E+00  0.8976E+00  0.2690E+02  0.2690E+02
     22.261  0.2581E+00  0.2618E+00  0.2692E+02  0.2692E+02
     22.350  0.4725E-01  0.4803E-01  0.2693E+02  0.2693E+02
     22.439  0.8860E-02  0.8989E-02  0.2693E+02  0.2693E+02
     22.527  0.4703E-02  0.4664E-02  0.2693E+02  0.2693E+02
     22.616  0.2726E-01  0.2703E-01  0.2693E+02  0.2693E+02
     22.705  0.1435E+00  0.1425E+00  0.2694E+02  0.2694E+02
     22.794  0.5224E+00  0.5213E+00  0.2699E+02  0.2699E+02
     22.882  0.1006E+01  0.1011E+01  0.2708E+02  0.2708E+02
     22.971  0.1638E+01  0.1637E+01  0.2722E+02  0.2722E+02
     23.060  0.1768E+01  0.1761E+01  0.2738E+02  0.2738E+02
     23.149  0.8842E+00  0.8872E+00  0.2746E+02  0.2746E+02
     23.238  0.2217E+00  0.2234E+00  0.2748E+02  0.2748E+02
     23.326  0.7910E-01  0.7907E-01  0.2749E+02  0.2748E+02
     23.415  0.2047E+00  0.2031E+00  0.2750E+02  0.2750E+02
     23.504  0.5866E+00  0.5843E+00  0.2756E+02  0.2756E+02
     23.593  0.6071E+00  0.6090E+00  0.2761E+02  0.2761E+02
     23.682  0.3201E+00  0.3211E+00  0.2764E+02  0.2764E+02
     23.770  0.4704E+00  0.4690E+00  0.2768E+02  0.2768E+02
     23.859  0.7379E+00  0.7378E+00  0.2775E+02  0.2774E+02
     23.948  0.1001E+01  0.1001E+01  0.2783E+02  0.2783E+02
     24.037  0.9983E+00  0.1000E+01  0.2792E+02  0.2792E+02
     24.126  0.3628E+00  0.3645E+00  0.2796E+02  0.2795E+02
     24.214  0.7278E-01  0.7316E-01  0.2796E+02  0.2796E+02
     24.303  0.1276E-01  0.1283E-01  0.2796E+02  0.2796E+02
     24.392  0.0000E+00  0.0000E+00  0.2796E+02  0.2796E+02
     24.481  0.0000E+00  0.0000E+00  0.2796E+02  0.2796E+02
     24.569  0.0000E+00  0.0000E+00  0.2796E+02  0.2796E+02
     24.658  0.0000E+00  0.0000E+00  0.2796E+02  0.2796E+02
     24.747  0.0000E+00  0.0000E+00  0.2796E+02  0.2796E+02
     24.836  0.0000E+00  0.0000E+00  0.2796E+02  0.2796E+02
     24.925  0.0000E+00  0.0000E+00  0.2796E+02  0.2796E+02
     25.013  0.3046E-04  0.3066E-04  0.2796E+02  0.2796E+02
     25.102  0.1493E-03  0.1503E-03  0.2796E+02  0.2796E+02
     25.191  0.8797E-03  0.8854E-03  0.2796E+02  0.2796E+02
     25.280  0.5120E-02  0.5152E-02  0.2796E+02  0.2796E+02
     25.369  0.2784E-01  0.2800E-01  0.2797E+02  0.2797E+02
     25.457  0.1095E+00  0.1099E+00  0.2798E+02  0.2798E+02
     25.546  0.1718E+00  0.1717E+00  0.2799E+02  0.2799E+02
     25.635  0.8021E-01  0.7984E-01  0.2800E+02  0.2800E+02
     25.724  0.1781E-01  0.1770E-01  0.2800E+02  0.2800E+02
     25.812  0.3176E-02  0.3155E-02  0.2800E+02  0.2800E+02
     25.901  0.0000E+00  0.0000E+00  0.2800E+02  0.2800E+02
     25.990  0.0000E+00  0.0000E+00  0.2800E+02  0.2800E+02
     26.079  0.0000E+00  0.0000E+00  0.2800E+02  0.2800E+02
     26.168  0.0000E+00  0.0000E+00  0.2800E+02  0.2800E+02
     26.256  0.0000E+00  0.0000E+00  0.2800E+02  0.2800E+02
     26.345  0.0000E+00  0.0000E+00  0.2800E+02  0.2800E+02
     26.434  0.0000E+00  0.0000E+00  0.2800E+02  0.2800E+02
     26.523  0.0000E+00  0.0000E+00  0.2800E+02  0.2800E+02
     26.612  0.0000E+00  0.0000E+00  0.2800E+02  0.2800E+02
     26.700  0.0000E+00  0.0000E+00  0.2800E+02  0.2800E+02
     26.70038485      0.06370537  301     13.11344149      1.00000000
      0.064  0.0000E+00  0.0000E+00  0.0000E+00  0.0000E+00  0.0000E+00  0.0000E+00  0.0000E+00  0.0000E+00  0.0000E+00  0.0000E+00  0.0000E+00  0.0000E+00  0.0000E+00  0.0000E+00  0.0000E+00  0.0000E+00  0.0000E+00  0.0000E+00
      0.152  0.0000E+00  0.0000E+00  0.0000E+00  0.0000E+00  0.0000E+00  0.0000E+00  0.0000E+00  0.0000E+00  0.0000E+00  0.0000E+00  0.0000E+00  0.0000E+00  0.0000E+00  0.0000E+00  0.0000E+00  0.0000E+00  0.0000E+00  0.0000E+00
      0.241  0.0000E+00  0.0000E+00  0.0000E+00  0.0000E+00  0.0000E+00  0.0000E+00  0.0000E+00  0.0000E+00  0.0000E+00  0.0000E+00  0.0000E+00  0.0000E+00  0.0000E+00  0.0000E+00  0.0000E+00  0.0000E+00  0.0000E+00  0.0000E+00
      0.330  0.0000E+00  0.0000E+00  0.0000E+00  0.0000E+00  0.0000E+00  0.0000E+00  0.0000E+00  0.0000E+00  0.0000E+00  0.0000E+00  0.0000E+00  0.0000E+00  0.0000E+00  0.0000E+00  0.0000E+00  0.0000E+00  0.0000E+00  0.0000E+00
      0.419  0.0000E+00  0.0000E+00  0.0000E+00  0.0000E+00  0.0000E+00  0.0000E+00  0.0000E+00  0.0000E+00  0.0000E+00  0.0000E+00  0.0000E+00  0.0000E+00  0.0000E+00  0.0000E+00  0.0000E+00  0.0000E+00  0.0000E+00  0.0000E+00
      0.508  0.0000E+00  0.0000E+00  0.0000E+00  0.0000E+00  0.0000E+00  0.0000E+00  0.0000E+00  0.0000E+00  0.0000E+00  0.0000E+00  0.0000E+00  0.0000E+00  0.0000E+00  0.0000E+00  0.0000E+00  0.0000E+00  0.0000E+00  0.0000E+00
      0.596  0.0000E+00  0.0000E+00  0.0000E+00  0.0000E+00  0.0000E+00  0.0000E+00  0.0000E+00  0.0000E+00  0.0000E+00  0.0000E+00  0.0000E+00  0.0000E+00  0.0000E+00  0.0000E+00  0.0000E+00  0.0000E+00  0.0000E+00  0.0000E+00
      0.685  0.0000E+00  0.0000E+00  0.0000E+00  0.0000E+00  0.0000E+00  0.0000E+00  0.0000E+00  0.0000E+00  0.0000E+00  0.0000E+00  0.0000E+00  0.0000E+00  0.0000E+00  0.0000E+00  0.0000E+00  0.0000E+00  0.0000E+00  0.0000E+00
      0.774  0.0000E+00  0.0000E+00  0.0000E+00  0.0000E+00  0.0000E+00  0.0000E+00  0.0000E+00  0.0000E+00  0.0000E+00  0.0000E+00  0.0000E+00  0.0000E+00  0.0000E+00  0.0000E+00  0.0000E+00  0.0000E+00  0.0000E+00  0.0000E+00
      0.863  0.1990E-04  0.1962E-04  0.1259E-06  0.1242E-06  0.1259E-06  0.1242E-06  0.1259E-06  0.1242E-06  0.9195E-08  0.9065E-08  0.9195E-08  0.9065E-08  0.1087E-22  0.1820E-22  0.9195E-08  0.9065E-08  0.1087E-22  0.1820E-22
      0.952  0.9746E-04  0.9609E-04  0.6168E-06  0.6082E-06  0.6168E-06  0.6082E-06  0.6168E-06  0.6082E-06  0.4503E-07  0.4440E-07  0.4503E-07  0.4440E-07  0.5322E-22  0.8912E-22  0.4503E-07  0.4440E-07  0.5322E-22  0.8912E-22
      1.040  0.5704E-03  0.5624E-03  0.3609E-05  0.3560E-05  0.3609E-05  0.3560E-05  0.3609E-05  0.3560E-05  0.2635E-06  0.2598E-06  0.2635E-06  0.2598E-06  0.3115E-21  0.5216E-21  0.2635E-06  0.2598E-06  0.3115E-21  0.5216E-21
      1.129  0.3198E-02  0.3156E-02  0.2024E-04  0.1997E-04  0.2024E-04  0.1997E-04  0.2024E-04  0.1997E-04  0.1478E-05  0.1458E-05  0.1478E-05  0.1458E-05  0.1747E-20  0.2927E-20  0.1478E-05  0.1458E-05  0.1747E-20  0.2927E-20
      1.218  0.1441E-01  0.1426E-01  0.9117E-04  0.9027E-04  0.9117E-04  0.9027E-04  0.9117E-04  0.9027E-04  0.6657E-05  0.6590E-05  0.6657E-05  0.6590E-05  0.7867E-20  0.1323E-19  0.6657E-05  0.6590E-05  0.7867E-20  0.1323E-19
      1.307  0.3086E-01  0.3081E-01  0.1953E-03  0.1950E-03  0.1953E-03  0.1950E-03  0.1953E-03  0.1950E-03  0.1426E-04  0.1424E-04  0.1426E-04  0.1424E-04  0.1685E-19  0.2858E-19  0.1426E-04  0.1424E-04  0.1685E-19  0.2858E-19
      1.396  0.1966E-01  0.1982E-01  0.1244E-03  0.1254E-03  0.1244E-03  0.1254E-03  0.1244E-03  0.1254E-03  0.9084E-05  0.9156E-05  0.9084E-05  0.9156E-05  0.1074E-19  0.1838E-19  0.9084E-05  0.9156E-05  0.1074E-19  0.1838E-19
      1.484  0.5000E-02  0.5063E-02  0.3164E-04  0.3205E-04  0.3164E-04  0.3205E-04  0.3164E-04  0.3205E-04  0.2310E-05  0.2339E-05  0.2310E-05  0.2339E-05  0.2730E-20  0.4696E-20  0.2310E-05  0.2339E-05  0.2730E-20  0.4696E-20
      1.573  0.9545E-03  0.9667E-03  0.6633E-05  0.6703E-05  0.6633E-05  0.6703E-05  0.6633E-05  0.6703E-05  0.5404E-06  0.5447E-06  0.5404E-06  0.5447E-06  0.9882E-07  0.9744E-07  0.5404E-06  0.5447E-06  0.9882E-07  0.9744E-07
      1.662  0.3292E-03  0.3290E-03  0.4989E-05  0.4947E-05  0.4989E-05  0.4947E-05  0.4989E-05  0.4947E-05  0.6393E-06  0.6323E-06  0.6393E-06  0.6323E-06  0.4842E-06  0.4775E-06  0.6393E-06  0.6323E-06  0.4842E-06  0.4775E-06
      1.751  0.1005E-02  0.9910E-03  0.2342E-04  0.2310E-04  0.2342E-04  0.2310E-04  0.2342E-04  0.2310E-04  0.3325E-05  0.3278E-05  0.3325E-05  0.3278E-05  0.2843E-05  0.2804E-05  0.3325E-05  0.3278E-05  0.2843E-05  0.2804E-05
      1.839  0.5745E-02  0.5667E-02  0.1339E-03  0.1321E-03  0.1339E-03  0.1321E-03  0.1339E-03  0.1321E-03  0.1901E-04  0.1875E-04  0.1901E-04  0.1875E-04  0.1625E-04  0.1604E-04  0.1901E-04  0.1875E-04  0.1625E-04  0.1604E-04
      1.928  0.2841E-01  0.2808E-01  0.6620E-03  0.6546E-03  0.6620E-03  0.6546E-03  0.6620E-03  0.6546E-03  0.9397E-04  0.9290E-04  0.9397E-04  0.9290E-04  0.8036E-04  0.7947E-04  0.9397E-04  0.9290E-04  0.8036E-04  0.7947E-04
      2.017  0.7929E-01  0.7895E-01  0.1848E-02  0.1840E-02  0.1848E-02  0.1840E-02  0.1848E-02  0.1840E-02  0.2623E-03  0.2612E-03  0.2623E-03  0.2612E-03  0.2243E-03  0.2234E-03  0.2623E-03  0.2612E-03  0.2243E-03  0.2234E-03
      2.106  0.7018E-01  0.7059E-01  0.1635E-02  0.1645E-02  0.1635E-02  0.1645E-02  0.1635E-02  0.1645E-02  0.2322E-03  0.2335E-03  0.2322E-03  0.2335E-03  0.1985E-03  0.1997E-03  0.2322E-03  0.2335E-03  0.1985E-03  0.1997E-03
      2.195  0.2140E-01  0.2165E-01  0.4990E-03  0.5050E-03  0.4990E-03  0.5050E-03  0.4990E-03  0.5050E-03  0.7118E-04  0.7202E-04  0.7118E-04  0.7202E-04  0.6052E-04  0.6125E-04  0.7118E-04  0.7202E-04  0.6052E-04  0.6125E-04
      2.283  0.4226E-02  0.4281E-02  0.1000E-03  0.1013E-03  0.1000E-03  0.1013E-03  0.1000E-03  0.1013E-03  0.1589E-04  0.1604E-04  0.1589E-04  0.1604E-04  0.1186E-04  0.1202E-04  0.1589E-04  0.1604E-04  0.1186E-04  0.1202E-04
      2.372  0.1343E-02  0.1344E-02  0.4018E-04  0.4009E-04  0.4018E-04  0.4009E-04  0.4018E-04  0.4009E-04  0.1564E-04  0.1548E-04  0.1564E-04  0.1548E-04  0.3216E-05  0.3228E-05  0.1564E-04  0.1548E-04  0.3216E-05  0.3228E-05
      2.461  0.3631E-02  0.3580E-02  0.1360E-03  0.1341E-03  0.1360E-03  0.1341E-03  0.1360E-03  0.1341E-03  0.7669E-04  0.7562E-04  0.7669E-04  0.7562E-04  0.6908E-05  0.6814E-05  0.7669E-04  0.7562E-04  0.6908E-05  0.6814E-05
      2.550  0.1896E-01  0.1872E-01  0.7100E-03  0.7014E-03  0.7100E-03  0.7014E-03  0.7100E-03  0.7014E-03  0.4004E-03  0.3955E-03  0.4004E-03  0.3955E-03  0.3607E-04  0.3564E-04  0.4004E-03  0.3955E-03  0.3607E-04  0.3564E-04
      2.639  0.6366E-01  0.6326E-01  0.2384E-02  0.2370E-02  0.2384E-02  0.2370E-02  0.2384E-02  0.2370E-02  0.1345E-02  0.1337E-02  0.1345E-02  0.1337E-02  0.1211E-03  0.1204E-03  0.1345E-02  0.1337E-02  0.1211E-03  0.1204E-03
      2.727  0.7468E-01  0.7495E-01  0.2797E-02  0.2808E-02  0.2797E-02  0.2808E-02  0.2797E-02  0.2808E-02  0.1580E-02  0.1586E-02  0.1580E-02  0.1586E-02  0.1420E-03  0.1426E-03  0.1580E-02  0.1586E-02  0.1420E-03  0.1426E-03
      2.816  0.2776E-01  0.2806E-01  0.1041E-02  0.1052E-02  0.1041E-02  0.1052E-02  0.1041E-02  0.1052E-02  0.6044E-03  0.6105E-03  0.6044E-03  0.6105E-03  0.5302E-04  0.5361E-04  0.6044E-03  0.6105E-03  0.5302E-04  0.5361E-04
      2.905  0.7246E-02  0.7299E-02  0.2778E-03  0.2797E-03  0.2778E-03  0.2797E-03  0.2778E-03  0.2797E-03  0.2561E-03  0.2558E-03  0.2561E-03  0.2558E-03  0.1436E-04  0.1446E-04  0.2561E-03  0.2558E-03  0.1436E-04  0.1446E-04
      2.994  0.9167E-02  0.9086E-02  0.3764E-03  0.3730E-03  0.3764E-03  0.3730E-03  0.3764E-03  0.3730E-03  0.7022E-03  0.6946E-03  0.7022E-03  0.6946E-03  0.2362E-04  0.2335E-04  0.7022E-03  0.6946E-03  0.2362E-04  0.2335E-04
      3.083  0.2420E-01  0.2407E-01  0.1027E-02  0.1021E-02  0.1027E-02  0.1021E-02  0.1027E-02  0.1021E-02  0.1914E-02  0.1906E-02  0.1914E-02  0.1906E-02  0.1262E-03  0.1245E-03  0.1914E-02  0.1906E-02  0.1262E-03  0.1245E-03
      3.171  0.3317E-01  0.3311E-01  0.1594E-02  0.1589E-02  0.1594E-02  0.1589E-02  0.1594E-02  0.1589E-02  0.1815E-02  0.1823E-02  0.1815E-02  0.1823E-02  0.6746E-03  0.6665E-03  0.1815E-02  0.1823E-02  0.6746E-03  0.6665E-03
      3.260  0.5762E-01  0.5732E-01  0.3254E-02  0.3235E-02  0.3254E-02  0.3235E-02  0.3254E-02  0.3235E-02  0.1048E-02  0.1050E-02  0.1048E-02  0.1050E-02  0.2476E-02  0.2459E-02  0.1048E-02  0.1050E-02  0.2476E-02  0.2459E-02
      3.349  0.7234E-01  0.7252E-01  0.4194E-02  0.4205E-02  0.4194E-02  0.4205E-02  0.4194E-02  0.4205E-02  0.8566E-03  0.8594E-03  0.8566E-03  0.8594E-03  0.3399E-02  0.3408E-02  0.8566E-03  0.8594E-03  0.3399E-02  0.3408E-02
      3.438  0.3036E-01  0.3065E-01  0.1766E-02  0.1784E-02  0.1766E-02  0.1784E-02  0.1766E-02  0.1784E-02  0.4108E-03  0.4129E-03  0.4108E-03  0.4129E-03  0.1427E-02  0.1441E-02  0.4108E-03  0.4129E-03  0.1427E-02  0.1441E-02
      3.526  0.9751E-02  0.9784E-02  0.5772E-03  0.5791E-03  0.5772E-03  0.5791E-03  0.5772E-03  0.5791E-03  0.5799E-03  0.5734E-03  0.5799E-03  0.5734E-03  0.3807E-03  0.3836E-03  0.5799E-03  0.5734E-03  0.3807E-03  0.3836E-03
      3.615  0.2052E-01  0.2028E-01  0.1246E-02  0.1231E-02  0.1246E-02  0.1231E-02  0.1246E-02  0.1231E-02  0.2904E-02  0.2864E-02  0.2904E-02  0.2864E-02  0.5023E-03  0.4972E-03  0.2904E-02  0.2864E-02  0.5023E-03  0.4972E-03
      3.704  0.8799E-01  0.8709E-01  0.5319E-02  0.5266E-02  0.5319E-02  0.5266E-02  0.5319E-02  0.5266E-02  0.1353E-01  0.1338E-01  0.1353E-01  0.1338E-01  0.2045E-02  0.2025E-02  0.1353E-01  0.1338E-01  0.2045E-02  0.2025E-02
      3.793  0.1952E+00  0.1948E+00  0.1154E-01  0.1152E-01  0.1154E-01  0.1152E-01  0.1154E-01  0.1152E-01  0.3333E-01  0.3321E-01  0.3333E-01  0.3321E-01  0.4436E-02  0.4430E-02  0.3333E-01  0.3321E-01  0.4436E-02  0.4430E-02
      3.882  0.1449E+00  0.1457E+00  0.7976E-02  0.8030E-02  0.7976E-02  0.8030E-02  0.7976E-02  0.8030E-02  0.3460E-01  0.3462E-01  0.3460E-01  0.3462E-01  0.3771E-02  0.3783E-02  0.3460E-01  0.3462E-01  0.3771E-02  0.3783E-02
      3.970  0.8732E-01  0.8740E-01  0.3491E-02  0.3506E-02  0.3491E-02  0.3506E-02  0.3491E-02  0.3506E-02  0.4597E-01  0.4579E-01  0.4597E-01  0.4579E-01  0.6451E-02  0.6408E-02  0.4597E-01  0.4579E-01  0.6451E-02  0.6408E-02
      4.059  0.7187E-01  0.7216E-01  0.2264E-02  0.2275E-02  0.2264E-02  0.2275E-02  0.2264E-02  0.2275E-02  0.4747E-01  0.4767E-01  0.4747E-01  0.4767E-01  0.2497E-01  0.2481E-01  0.4747E-01  0.4767E-01  0.2497E-01  0.2481E-01
      4.148  0.3502E-01  0.3526E-01  0.1154E-02  0.1160E-02  0.1154E-02  0.1160E-02  0.1154E-02  0.1160E-02  0.1848E-01  0.1867E-01  0.1848E-01  0.1867E-01  0.5027E-01  0.5022E-01  0.1848E-01  0.1867E-01  0.5027E-01  0.5022E-01
      4.237  0.2355E-01  0.2349E-01  0.1405E-02  0.1395E-02  0.1405E-02  0.1395E-02  0.1405E-02  0.1395E-02  0.8098E-02  0.8091E-02  0.8098E-02  0.8091E-02  0.3822E-01  0.3829E-01  0.8098E-02  0.8091E-02  0.3822E-01  0.3829E-01
      4.326  0.6028E-01  0.5978E-01  0.4791E-02  0.4752E-02  0.4791E-02  0.4752E-02  0.4791E-02  0.4752E-02  0.2206E-01  0.2181E-01  0.2206E-01  0.2181E-01  0.4725E-01  0.4704E-01  0.2206E-01  0.2181E-01  0.4725E-01  0.4704E-01
      4.414  0.1332E+00  0.1326E+00  0.1017E-01  0.1014E-01  0.1017E-01  0.1014E-01  0.1017E-01  0.1014E-01  0.7175E-01  0.7123E-01  0.7175E-01  0.7123E-01  0.7523E-01  0.7519E-01  0.7175E-01  0.7123E-01  0.7523E-01  0.7519E-01
      4.503  0.1591E+00  0.1591E+00  0.1201E-01  0.1201E-01  0.1201E-01  0.1201E-01  0.1201E-01  0.1201E-01  0.1217E+00  0.1215E+00  0.1217E+00  0.1215E+00  0.7254E-01  0.7249E-01  0.1217E+00  0.1215E+00  0.7254E-01  0.7249E-01