   4   4   1   0
  0.1496216E+02  0.3911573E-09  0.3911573E-09  0.3911573E-09  0.5000000E-15
  1.000000000000000E-004
  CAR 
 unknown system                          
     24.98937204     -0.39282377  301     11.74185329      1.00000000
     -0.393  0.0000E+00  0.0000E+00  0.0000E+00  0.0000E+00
     -0.308  0.0000E+00  0.0000E+00  0.0000E+00  0.0000E+00
     -0.224  0.0000E+00  0.0000E+00  0.0000E+00  0.0000E+00
     -0.139  0.0000E+00  0.0000E+00  0.0000E+00  0.0000E+00
     -0.054  0.0000E+00  0.0000E+00  0.0000E+00  0.0000E+00
      0.030  0.0000E+00  0.0000E+00  0.0000E+00  0.0000E+00
      0.115  0.0000E+00  0.0000E+00  0.0000E+00  0.0000E+00
      0.199  0.0000E+00  0.0000E+00  0.0000E+00  0.0000E+00
      0.284  0.3156E-04  0.3132E-04  0.2670E-05  0.2650E-05
      0.369  0.1398E-03  0.1387E-03  0.1450E-04  0.1439E-04
      0.453  0.7576E-03  0.7519E-03  0.7859E-04  0.7801E-04
      0.538  0.4069E-02  0.4039E-02  0.4229E-03  0.4197E-03
      0.622  0.2084E-01  0.2069E-01  0.2186E-02  0.2171E-02
      0.707  0.8540E-01  0.8496E-01  0.9411E-02  0.9359E-02
      0.792  0.1729E+00  0.1728E+00  0.2404E-01  0.2398E-01
      0.876  0.1140E+00  0.1144E+00  0.3368E-01  0.3366E-01
      0.961  0.3174E-01  0.3196E-01  0.3637E-01  0.3637E-01
      1.046  0.6785E-02  0.6830E-02  0.3694E-01  0.3694E-01
      1.130  0.2883E-02  0.2880E-02  0.3719E-01  0.3719E-01
      1.215  0.9067E-02  0.9000E-02  0.3798E-01  0.3797E-01
      1.299  0.4713E-01  0.4680E-01  0.4197E-01  0.4193E-01
      1.384  0.2062E+00  0.2050E+00  0.5941E-01  0.5928E-01
      1.469  0.4946E+00  0.4937E+00  0.1013E+00  0.1011E+00
      1.553  0.3986E+00  0.4000E+00  0.1350E+00  0.1349E+00
      1.638  0.1242E+00  0.1250E+00  0.1455E+00  0.1455E+00
      1.722  0.2697E-01  0.2715E-01  0.1478E+00  0.1478E+00
      1.807  0.1136E-01  0.1135E-01  0.1487E+00  0.1487E+00
      1.892  0.3424E-01  0.3398E-01  0.1517E+00  0.1517E+00
      1.976  0.1585E+00  0.1575E+00  0.1651E+00  0.1650E+00
      2.061  0.4493E+00  0.4481E+00  0.2031E+00  0.2029E+00
      2.145  0.4560E+00  0.4572E+00  0.2417E+00  0.2416E+00
      2.230  0.1666E+00  0.1675E+00  0.2558E+00  0.2558E+00
      2.315  0.4969E-01  0.4985E-01  0.2600E+00  0.2600E+00
      2.399  0.7140E-01  0.7104E-01  0.2661E+00  0.2660E+00
      2.484  0.1850E+00  0.1844E+00  0.2819E+00  0.2818E+00
      2.568  0.2778E+00  0.2774E+00  0.3054E+00  0.3052E+00
      2.653  0.4634E+00  0.4625E+00  0.3446E+00  0.3444E+00
      2.738  0.4958E+00  0.4967E+00  0.3865E+00  0.3864E+00
      2.822  0.2014E+00  0.2024E+00  0.4036E+00  0.4035E+00
      2.907  0.8002E-01  0.8003E-01  0.4104E+00  0.4103E+00
      2.991  0.1958E+00  0.1945E+00  0.4269E+00  0.4268E+00
      3.076  0.7601E+00  0.7559E+00  0.4914E+00  0.4909E+00
      3.161  0.1602E+01  0.1600E+01  0.6269E+00  0.6262E+00
      3.245  0.1370E+01  0.1373E+01  0.7429E+00  0.7424E+00
      3.330  0.9142E+00  0.9140E+00  0.8202E+00  0.8198E+00
      3.415  0.1166E+01  0.1165E+01  0.9189E+00  0.9183E+00
      3.499  0.1001E+01  0.1004E+01  0.1004E+01  0.1003E+01
      3.584  0.8507E+00  0.8514E+00  0.1076E+01  0.1076E+01
      3.668  0.1004E+01  0.1002E+01  0.1161E+01  0.1160E+01
      3.753  0.1921E+01  0.1914E+01  0.1323E+01  0.1322E+01
      3.838  0.3117E+01  0.3114E+01  0.1587E+01  0.1586E+01
      3.922  0.3170E+01  0.3171E+01  0.1855E+01  0.1854E+01
      4.007  0.3081E+01  0.3083E+01  0.2116E+01  0.2115E+01
      4.091  0.2965E+01  0.2965E+01  0.2367E+01  0.2366E+01
      4.176  0.3477E+01  0.3475E+01  0.2661E+01  0.2660E+01
      4.261  0.3280E+01  0.3282E+01  0.2939E+01  0.2938E+01
      4.345  0.2582E+01  0.2581E+01  0.3158E+01  0.3157E+01
      4.430  0.2447E+01  0.2448E+01  0.3365E+01  0.3364E+01
      4.514  0.2258E+01  0.2257E+01  0.3556E+01  0.3555E+01
      4.599  0.3034E+01  0.3030E+01  0.3814E+01  0.3812E+01
      4.684  0.4464E+01  0.4462E+01  0.4191E+01  0.4190E+01
      4.768  0.3381E+01  0.3389E+01  0.4478E+01  0.4477E+01
      4.853  0.1871E+01  0.1873E+01  0.4636E+01  0.4635E+01
      4.937  0.1821E+01  0.1821E+01  0.4790E+01  0.4790E+01
      5.022  0.1440E+01  0.1441E+01  0.4912E+01  0.4912E+01
      5.107  0.1812E+01  0.1808E+01  0.5066E+01  0.5065E+01
      5.191  0.2782E+01  0.2780E+01  0.5302E+01  0.5301E+01
      5.276  0.3211E+01  0.3211E+01  0.5573E+01  0.5572E+01
      5.360  0.2934E+01  0.2936E+01  0.5822E+01  0.5821E+01
      5.445  0.2580E+01  0.2581E+01  0.6040E+01  0.6039E+01
      5.530  0.2643E+01  0.2642E+01  0.6264E+01  0.6263E+01
      5.614  0.2163E+01  0.2165E+01  0.6447E+01  0.6446E+01
      5.699  0.2166E+01  0.2162E+01  0.6630E+01  0.6630E+01
      5.784  0.3540E+01  0.3534E+01  0.6930E+01  0.6929E+01
      5.868  0.4907E+01  0.4904E+01  0.7346E+01  0.7344E+01
      5.953  0.4614E+01  0.4620E+01  0.7736E+01  0.7735E+01
      6.037  0.2589E+01  0.2597E+01  0.7955E+01  0.7955E+01
      6.122  0.1586E+01  0.1585E+01  0.8090E+01  0.8089E+01
      6.207  0.2387E+01  0.2380E+01  0.8292E+01  0.8291E+01
      6.291  0.4549E+01  0.4538E+01  0.8677E+01  0.8675E+01
      6.376  0.5897E+01  0.5899E+01  0.9177E+01  0.9175E+01
      6.460  0.4551E+01  0.4560E+01  0.9562E+01  0.9560E+01
      6.545  0.3415E+01  0.3417E+01  0.9851E+01  0.9850E+01
      6.630  0.3419E+01  0.3417E+01  0.1014E+02  0.1014E+02
      6.714  0.4491E+01  0.4483E+01  0.1052E+02  0.1052E+02
      6.799  0.5428E+01  0.5429E+01  0.1098E+02  0.1098E+02
      6.883  0.4657E+01  0.4662E+01  0.1137E+02  0.1137E+02
      6.968  0.3427E+01  0.3433E+01  0.1167E+02  0.1166E+02
      7.053  0.2284E+01  0.2287E+01  0.1186E+02  0.1186E+02
      7.137  0.2930E+01  0.2923E+01  0.1211E+02  0.1211E+02
      7.222  0.4319E+01  0.4317E+01  0.1247E+02  0.1247E+02
      7.306  0.3371E+01  0.3377E+01  0.1276E+02  0.1276E+02
      7.391  0.2513E+01  0.2515E+01  0.1297E+02  0.1297E+02
      7.476  0.2416E+01  0.2416E+01  0.1318E+02  0.1317E+02
      7.560  0.2252E+01  0.2253E+01  0.1337E+02  0.1337E+02
      7.645  0.1705E+01  0.1707E+01  0.1351E+02  0.1351E+02
      7.729  0.1917E+01  0.1911E+01  0.1367E+02  0.1367E+02
      7.814  0.3848E+01  0.3840E+01  0.1400E+02  0.1400E+02
      7.899  0.4416E+01  0.4419E+01  0.1437E+02  0.1437E+02
      7.983  0.3893E+01  0.3894E+01  0.1470E+02  0.1470E+02
      8.068  0.3709E+01  0.3710E+01  0.1502E+02  0.1502E+02
      8.153  0.3456E+01  0.3457E+01  0.1531E+02  0.1531E+02
      8.237  0.2894E+01  0.2897E+01  0.1555E+02  0.1555E+02
      8.322  0.1877E+01  0.1881E+01  0.1571E+02  0.1571E+02
      8.406  0.1935E+01  0.1933E+01  0.1588E+02  0.1588E+02
      8.491  0.2318E+01  0.2318E+01  0.1607E+02  0.1607E+02
      8.576  0.2331E+01  0.2329E+01  0.1627E+02  0.1627E+02
      8.660  0.2845E+01  0.2845E+01  0.1651E+02  0.1651E+02
      8.745  0.2448E+01  0.2448E+01  0.1672E+02  0.1672E+02
      8.829  0.3414E+01  0.3406E+01  0.1701E+02  0.1701E+02
      8.914  0.4817E+01  0.4817E+01  0.1742E+02  0.1741E+02
      8.999  0.3372E+01  0.3382E+01  0.1770E+02  0.1770E+02
      9.083  0.1436E+01  0.1440E+01  0.1782E+02  0.1782E+02
      9.168  0.1105E+01  0.1104E+01  0.1792E+02  0.1792E+02
      9.252  0.1790E+01  0.1785E+01  0.1807E+02  0.1807E+02
      9.337  0.3371E+01  0.3364E+01  0.1835E+02  0.1835E+02
      9.422  0.4804E+01  0.4800E+01  0.1876E+02  0.1876E+02
      9.506  0.4890E+01  0.4894E+01  0.1917E+02  0.1917E+02
      9.591  0.3923E+01  0.3924E+01  0.1951E+02  0.1951E+02
      9.675  0.3867E+01  0.3868E+01  0.1983E+02  0.1983E+02
      9.760  0.3026E+01  0.3031E+01  0.2009E+02  0.2009E+02
      9.845  0.2128E+01  0.2129E+01  0.2027E+02  0.2027E+02
      9.929  0.2349E+01  0.2345E+01  0.2047E+02  0.2047E+02
     10.014  0.3031E+01  0.3030E+01  0.2073E+02  0.2073E+02
     10.098  0.2214E+01  0.2220E+01  0.2091E+02  0.2091E+02
     10.183  0.8958E+00  0.8995E+00  0.2099E+02  0.2099E+02
     10.268  0.6105E+00  0.6092E+00  0.2104E+02  0.2104E+02
     10.352  0.1350E+01  0.1347E+01  0.2116E+02  0.2116E+02
     10.437  0.1688E+01  0.1690E+01  0.2130E+02  0.2130E+02
     10.522  0.1261E+01  0.1262E+01  0.2141E+02  0.2141E+02
     10.606  0.1009E+01  0.1010E+01  0.2149E+02  0.2149E+02
     10.691  0.5551E+00  0.5576E+00  0.2154E+02  0.2154E+02
     10.775  0.1575E+00  0.1586E+00  0.2155E+02  0.2155E+02
     10.860  0.3203E-01  0.3230E-01  0.2155E+02  0.2155E+02
     10.945  0.5154E-02  0.5199E-02  0.2156E+02  0.2156E+02
     11.029  0.1972E-03  0.1962E-03  0.2156E+02  0.2156E+02
     11.114  0.8729E-03  0.8689E-03  0.2156E+02  0.2156E+02
     11.198  0.5104E-02  0.5080E-02  0.2156E+02  0.2156E+02
     11.283  0.2720E-01  0.2707E-01  0.2156E+02  0.2156E+02
     11.368  0.1320E+00  0.1315E+00  0.2157E+02  0.2157E+02
     11.452  0.4527E+00  0.4514E+00  0.2161E+02  0.2161E+02
     11.537  0.7896E+00  0.7884E+00  0.2167E+02  0.2167E+02
     11.621  0.1253E+01  0.1249E+01  0.2178E+02  0.2178E+02
     11.706  0.1876E+01  0.1874E+01  0.2194E+02  0.2194E+02
     11.791  0.1411E+01  0.1415E+01  0.2206E+02  0.2206E+02
     11.875  0.4929E+00  0.4957E+00  0.2210E+02  0.2210E+02
     11.960  0.1369E+00  0.1374E+00  0.2211E+02  0.2211E+02
     12.044  0.1702E+00  0.1691E+00  0.2213E+02  0.2213E+02
     12.129  0.5931E+00  0.5900E+00  0.2218E+02  0.2218E+02
     12.214  0.1049E+01  0.1049E+01  0.2227E+02  0.2227E+02
     12.298  0.5995E+00  0.6027E+00  0.2232E+02  0.2232E+02
     12.383  0.1561E+00  0.1573E+00  0.2233E+02  0.2233E+02
     12.467  0.3197E-01  0.3222E-01  0.2233E+02  0.2233E+02
     12.552  0.1155E-01  0.1154E-01  0.2233E+02  0.2233E+02
     12.637  0.3101E-01  0.3070E-01  0.2234E+02  0.2234E+02
     12.721  0.1462E+00  0.1449E+00  0.2235E+02  0.2235E+02
     12.806  0.4429E+00  0.4410E+00  0.2239E+02  0.2239E+02
     12.891  0.5427E+00  0.5436E+00  0.2243E+02  0.2243E+02
     12.975  0.5019E+00  0.5015E+00  0.2247E+02  0.2247E+02
     13.060  0.1009E+01  0.1006E+01  0.2256E+02  0.2256E+02
     13.144  0.1410E+01  0.1410E+01  0.2268E+02  0.2268E+02
     13.229  0.8548E+00  0.8581E+00  0.2275E+02  0.2275E+02
     13.314  0.2468E+00  0.2482E+00  0.2277E+02  0.2277E+02
     13.398  0.5933E-01  0.5957E-01  0.2278E+02  0.2278E+02
     13.483  0.5727E-01  0.5693E-01  0.2278E+02  0.2278E+02
     13.567  0.2359E+00  0.2342E+00  0.2280E+02  0.2280E+02
     13.652  0.7760E+00  0.7729E+00  0.2287E+02  0.2287E+02
     13.737  0.1001E+01  0.1003E+01  0.2295E+02  0.2295E+02
     13.821  0.4311E+00  0.4337E+00  0.2299E+02  0.2299E+02
     13.906  0.1021E+00  0.1029E+00  0.2300E+02  0.2300E+02
     13.990  0.3334E-01  0.3341E-01  0.2300E+02  0.2300E+02
     14.075  0.7424E-01  0.7379E-01  0.2301E+02  0.2301E+02
     14.160  0.3395E+00  0.3378E+00  0.2304E+02  0.2304E+02
     14.244  0.9252E+00  0.9233E+00  0.2311E+02  0.2311E+02
     14.329  0.8898E+00  0.8919E+00  0.2319E+02  0.2319E+02
     14.413  0.3346E+00  0.3359E+00  0.2322E+02  0.2322E+02
     14.498  0.2118E+00  0.2108E+00  0.2324E+02  0.2324E+02
     14.583  0.5869E+00  0.5833E+00  0.2329E+02  0.2329E+02
     14.667  0.1066E+01  0.1066E+01  0.2338E+02  0.2338E+02
     14.752  0.7160E+00  0.7189E+00  0.2344E+02  0.2344E+02
     14.836  0.5764E+00  0.5750E+00  0.2349E+02  0.2349E+02
     14.921  0.1022E+01  0.1020E+01  0.2357E+02  0.2357E+02
     15.006  0.8039E+00  0.8074E+00  0.2364E+02  0.2364E+02
     15.090  0.2482E+00  0.2502E+00  0.2366E+02  0.2366E+02
     15.175  0.5161E-01  0.5208E-01  0.2367E+02  0.2367E+02
     15.260  0.9730E-02  0.9821E-02  0.2367E+02  0.2367E+02
     15.344  0.9290E-04  0.9194E-04  0.2367E+02  0.2367E+02
     15.429  0.7000E-03  0.6930E-03  0.2367E+02  0.2367E+02
     15.513  0.4269E-02  0.4227E-02  0.2367E+02  0.2367E+02
     15.598  0.2224E-01  0.2203E-01  0.2367E+02  0.2367E+02
     15.683  0.1158E+00  0.1147E+00  0.2368E+02  0.2368E+02
     15.767  0.5150E+00  0.5111E+00  0.2372E+02  0.2372E+02
     15.852  0.1413E+01  0.1408E+01  0.2384E+02  0.2384E+02
     15.936  0.2013E+01  0.2013E+01  0.2401E+02  0.2401E+02
     16.021  0.1699E+01  0.1703E+01  0.2416E+02  0.2416E+02
     16.106  0.1080E+01  0.1082E+01  0.2425E+02  0.2425E+02
     16.190  0.1148E+01  0.1147E+01  0.2434E+02  0.2434E+02
     16.275  0.8507E+00  0.8548E+00  0.2442E+02  0.2442E+02
     16.359  0.2832E+00  0.2855E+00  0.2444E+02  0.2444E+02
     16.444  0.1564E+00  0.1561E+00  0.2445E+02  0.2445E+02
     16.529  0.3675E+00  0.3659E+00  0.2449E+02  0.2449E+02
     16.613  0.5141E+00  0.5147E+00  0.2453E+02  0.2453E+02
     16.698  0.2422E+00  0.2437E+00  0.2455E+02  0.2455E+02
     16.782  0.5798E-01  0.5848E-01  0.2455E+02  0.2455E+02
     16.867  0.1127E-01  0.1137E-01  0.2456E+02  0.2456E+02
     16.952  0.2241E-02  0.2259E-02  0.2456E+02  0.2456E+02
     17.036  0.6368E-03  0.6321E-03  0.2456E+02  0.2456E+02
     17.121  0.4556E-02  0.4522E-02  0.2456E+02  0.2456E+02
     17.205  0.2271E-01  0.2255E-01  0.2456E+02  0.2456E+02
     17.290  0.1031E+00  0.1024E+00  0.2457E+02  0.2457E+02
     17.375  0.3131E+00  0.3118E+00  0.2459E+02  0.2459E+02
     17.459  0.7860E+00  0.7824E+00  0.2466E+02  0.2466E+02
     17.544  0.1899E+01  0.1894E+01  0.2482E+02  0.2482E+02
     17.629  0.2168E+01  0.2169E+01  0.2500E+02  0.2500E+02
     17.713  0.1824E+01  0.1823E+01  0.2516E+02  0.2516E+02
     17.798  0.1641E+01  0.1645E+01  0.2530E+02  0.2530E+02
     17.882  0.6836E+00  0.6882E+00  0.2535E+02  0.2535E+02
     17.967  0.1871E+00  0.1880E+00  0.2537E+02  0.2537E+02
     18.052  0.2090E+00  0.2074E+00  0.2539E+02  0.2539E+02
     18.136  0.6633E+00  0.6588E+00  0.2545E+02  0.2544E+02
     18.221  0.1043E+01  0.1044E+01  0.2553E+02  0.2553E+02
     18.305  0.5363E+00  0.5405E+00  0.2558E+02  0.2558E+02
     18.390  0.1382E+00  0.1396E+00  0.2559E+02  0.2559E+02
     18.475  0.5544E-01  0.5552E-01  0.2560E+02  0.2560E+02
     18.559  0.1561E+00  0.1550E+00  0.2561E+02  0.2561E+02
     18.644  0.6322E+00  0.6287E+00  0.2566E+02  0.2566E+02
     18.728  0.1407E+01  0.1405E+01  0.2578E+02  0.2578E+02
     18.813  0.1184E+01  0.1188E+01  0.2588E+02  0.2588E+02
     18.898  0.4417E+00  0.4440E+00  0.2592E+02  0.2592E+02
     18.982  0.2011E+00  0.2007E+00  0.2594E+02  0.2594E+02
     19.067  0.3872E+00  0.3852E+00  0.2597E+02  0.2597E+02
     19.151  0.5121E+00  0.5129E+00  0.2601E+02  0.2601E+02
     19.236  0.2350E+00  0.2368E+00  0.2603E+02  0.2603E+02
     19.321  0.7301E-01  0.7347E-01  0.2604E+02  0.2604E+02
     19.405  0.1026E+00  0.1023E+00  0.2605E+02  0.2605E+02
     19.490  0.3507E+00  0.3496E+00  0.2608E+02  0.2608E+02
     19.575  0.6461E+00  0.6456E+00  0.2613E+02  0.2613E+02
     19.659  0.6718E+00  0.6716E+00  0.2619E+02  0.2619E+02
     19.744  0.5648E+00  0.5659E+00  0.2624E+02  0.2624E+02
     19.828  0.2271E+00  0.2281E+00  0.2625E+02  0.2625E+02
     19.913  0.8631E-01  0.8629E-01  0.2626E+02  0.2626E+02
     19.998  0.1941E+00  0.1926E+00  0.2628E+02  0.2628E+02
     20.082  0.7415E+00  0.7370E+00  0.2634E+02  0.2634E+02
     20.167  0.1604E+01  0.1602E+01  0.2648E+02  0.2648E+02
     20.251  0.1806E+01  0.1808E+01  0.2663E+02  0.2663E+02
     20.336  0.1491E+01  0.1491E+01  0.2676E+02  0.2676E+02
     20.421  0.1259E+01  0.1261E+01  0.2686E+02  0.2686E+02
     20.505  0.5743E+00  0.5782E+00  0.2691E+02  0.2691E+02
     20.590  0.1387E+00  0.1400E+00  0.2692E+02  0.2692E+02
     20.674  0.2779E-01  0.2803E-01  0.2693E+02  0.2693E+02
     20.759  0.1615E-01  0.1615E-01  0.2693E+02  0.2693E+02
     20.844  0.5900E-01  0.5880E-01  0.2693E+02  0.2693E+02
     20.928  0.2480E+00  0.2474E+00  0.2695E+02  0.2695E+02
     21.013  0.5530E+00  0.5525E+00  0.2700E+02  0.2700E+02
     21.097  0.5635E+00  0.5625E+00  0.2705E+02  0.2705E+02
     21.182  0.9776E+00  0.9726E+00  0.2713E+02  0.2713E+02
     21.267  0.2015E+01  0.2013E+01  0.2730E+02  0.2730E+02
     21.351  0.1544E+01  0.1550E+01  0.2743E+02  0.2743E+02
     21.436  0.4730E+00  0.4763E+00  0.2747E+02  0.2747E+02
     21.520  0.1063E+00  0.1070E+00  0.2748E+02  0.2748E+02
     21.605  0.6299E-01  0.6301E-01  0.2749E+02  0.2749E+02
     21.690  0.1980E+00  0.1976E+00  0.2750E+02  0.2750E+02
     21.774  0.5018E+00  0.5013E+00  0.2755E+02  0.2755E+02
     21.859  0.4861E+00  0.4859E+00  0.2759E+02  0.2759E+02
     21.944  0.3855E+00  0.3834E+00  0.2762E+02  0.2762E+02
     22.028  0.5603E+00  0.5522E+00  0.2767E+02  0.2767E+02
     22.113  0.7738E+00  0.7441E+00  0.2773E+02  0.2773E+02
     22.197  0.9642E+00  0.8941E+00  0.2781E+02  0.2780E+02
     22.282  0.1099E+01  0.1113E+01  0.2791E+02  0.2790E+02
     22.367  0.5127E+00  0.5805E+00  0.2795E+02  0.2795E+02
     22.451  0.1234E+00  0.1466E+00  0.2796E+02  0.2796E+02
     22.536  0.2361E-01  0.2844E-01  0.2796E+02  0.2796E+02
     22.620  0.4395E-02  0.5304E-02  0.2796E+02  0.2796E+02
     22.705  0.0000E+00  0.0000E+00  0.2796E+02  0.2796E+02
     22.790  0.0000E+00  0.0000E+00  0.2796E+02  0.2796E+02
     22.874  0.0000E+00  0.0000E+00  0.2796E+02  0.2796E+02
     22.959  0.0000E+00  0.0000E+00  0.2796E+02  0.2796E+02
     23.043  0.0000E+00  0.0000E+00  0.2796E+02  0.2796E+02
     23.128  0.0000E+00  0.0000E+00  0.2796E+02  0.2796E+02
     23.213  0.0000E+00  0.0000E+00  0.2796E+02  0.2796E+02
     23.297  0.0000E+00  0.0000E+00  0.2796E+02  0.2796E+02
     23.382  0.5772E-04  0.5006E-04  0.2796E+02  0.2796E+02
     23.466  0.2556E-03  0.2217E-03  0.2796E+02  0.2796E+02
     23.551  0.1383E-02  0.1200E-02  0.2796E+02  0.2796E+02
     23.636  0.7361E-02  0.6405E-02  0.2796E+02  0.2796E+02
     23.720  0.3600E-01  0.3174E-01  0.2797E+02  0.2797E+02
     23.805  0.1230E+00  0.1140E+00  0.2798E+02  0.2798E+02
     23.889  0.1698E+00  0.1729E+00  0.2799E+02  0.2799E+02
     23.974  0.7725E-01  0.8540E-01  0.2800E+02  0.2800E+02
     24.059  0.1824E-01  0.2084E-01  0.2800E+02  0.2800E+02
     24.143  0.3535E-02  0.4069E-02  0.2800E+02  0.2800E+02
     24.228  0.6572E-03  0.7576E-03  0.2800E+02  0.2800E+02
     24.313  0.0000E+00  0.0000E+00  0.2800E+02  0.2800E+02
     24.397  0.0000E+00  0.0000E+00  0.2800E+02  0.2800E+02
     24.482  0.0000E+00  0.0000E+00  0.2800E+02  0.2800E+02
     24.566  0.0000E+00  0.0000E+00  0.2800E+02  0.2800E+02
     24.651  0.0000E+00  0.0000E+00  0.2800E+02  0.2800E+02
     24.736  0.0000E+00  0.0000E+00  0.2800E+02  0.2800E+02
     24.820  0.0000E+00  0.0000E+00  0.2800E+02  0.2800E+02
     24.905  0.0000E+00  0.0000E+00  0.2800E+02  0.2800E+02
     24.989  0.0000E+00  0.0000E+00  0.2800E+02  0.2800E+02
     24.98937204     -0.39282377  301     11.74185329      1.00000000
     -0.393  0.0000E+00  0.0000E+00  0.0000E+00  0.0000E+00  0.0000E+00  0.0000E+00  0.0000E+00  0.0000E+00  0.0000E+00  0.0000E+00  0.0000E+00  0.0000E+00  0.0000E+00  0.0000E+00  0.0000E+00  0.0000E+00  0.0000E+00  0.0000E+00
     -0.308  0.0000E+00  0.0000E+00  0.0000E+00  0.0000E+00  0.0000E+00  0.0000E+00  0.0000E+00  0.0000E+00  0.0000E+00  0.0000E+00  0.0000E+00  0.0000E+00  0.0000E+00  0.0000E+00  0.0000E+00  0.0000E+00  0.0000E+00  0.0000E+00
     -0.224  0.0000E+00  0.0000E+00  0.0000E+00  0.0000E+00  0.0000E+00  0.0000E+00  0.0000E+00  0.0000E+00  0.0000E+00  0.0000E+00  0.0000E+00  0.0000E+00  0.0000E+00  0.0000E+00  0.0000E+00  0.0000E+00  0.0000E+00  0.0000E+00
     -0.139  0.0000E+00  0.0000E+00  0.0000E+00  0.0000E+00  0.0000E+00  0.0000E+00  0.0000E+00  0.0000E+00  0.0000E+00  0.0000E+00  0.0000E+00  0.0000E+00  0.0000E+00  0.0000E+00  0.0000E+00  0.0000E+00  0.0000E+00  0.0000E+00
     -0.054  0.0000E+00  0.0000E+00  0.0000E+00  0.0000E+00  0.0000E+00  0.0000E+00  0.0000E+00  0.0000E+00  0.0000E+00  0.0000E+00  0.0000E+00  0.0000E+00  0.0000E+00  0.0000E+00  0.0000E+00  0.0000E+00  0.0000E+00  0.0000E+00
      0.030  0.0000E+00  0.0000E+00  0.0000E+00  0.0000E+00  0.0000E+00  0.0000E+00  0.0000E+00  0.0000E+00  0.0000E+00  0.0000E+00  0.0000E+00  0.0000E+00  0.0000E+00  0.0000E+00  0.0000E+00  0.0000E+00  0.0000E+00  0.0000E+00
      0.115  0.0000E+00  0.0000E+00  0.0000E+00  0.0000E+00  0.0000E+00  0.0000E+00  0.0000E+00  0.0000E+00  0.0000E+00  0.0000E+00  0.0000E+00  0.0000E+00  0.0000E+00  0.0000E+00  0.0000E+00  0.0000E+00  0.0000E+00  0.0000E+00
      0.199  0.0000E+00  0.0000E+00  0.0000E+00  0.0000E+00  0.0000E+00  0.0000E+00  0.0000E+00  0.0000E+00  0.0000E+00  0.0000E+00  0.0000E+00  0.0000E+00  0.0000E+00  0.0000E+00  0.0000E+00  0.0000E+00  0.0000E+00  0.0000E+00
      0.284  0.5307E-05  0.5266E-05  0.3170E-07  0.3146E-07  0.3170E-07  0.3146E-07  0.3170E-07  0.3146E-07  0.2391E-08  0.2373E-08  0.2391E-08  0.2373E-08  0.2218E-23  0.3325E-23  0.2391E-08  0.2373E-08  0.2218E-23  0.3325E-23
      0.369  0.2351E-04  0.2333E-04  0.1404E-06  0.1393E-06  0.1404E-06  0.1393E-06  0.1404E-06  0.1393E-06  0.1059E-07  0.1051E-07  0.1059E-07  0.1051E-07  0.9825E-23  0.1473E-22  0.1059E-07  0.1051E-07  0.9825E-23  0.1473E-22
      0.453  0.1274E-03  0.1264E-03  0.7609E-06  0.7553E-06  0.7609E-06  0.7553E-06  0.7609E-06  0.7553E-06  0.5741E-07  0.5697E-07  0.5741E-07  0.5697E-07  0.5325E-22  0.7983E-22  0.5741E-07  0.5697E-07  0.5325E-22  0.7983E-22
      0.538  0.6843E-03  0.6791E-03  0.4087E-05  0.4057E-05  0.4087E-05  0.4057E-05  0.4087E-05  0.4057E-05  0.3083E-06  0.3060E-06  0.3083E-06  0.3060E-06  0.2860E-21  0.4288E-21  0.3083E-06  0.3060E-06  0.2860E-21  0.4288E-21
      0.622  0.3504E-02  0.3480E-02  0.2093E-04  0.2079E-04  0.2093E-04  0.2079E-04  0.2093E-04  0.2079E-04  0.1579E-05  0.1568E-05  0.1579E-05  0.1568E-05  0.1465E-20  0.2197E-20  0.1579E-05  0.1568E-05  0.1465E-20  0.2197E-20
      0.707  0.1436E-01  0.1429E-01  0.8578E-04  0.8534E-04  0.8578E-04  0.8534E-04  0.8578E-04  0.8534E-04  0.6471E-05  0.6436E-05  0.6471E-05  0.6436E-05  0.6003E-20  0.9019E-20  0.6471E-05  0.6436E-05  0.6003E-20  0.9019E-20
      0.792  0.2908E-01  0.2906E-01  0.1737E-03  0.1736E-03  0.1737E-03  0.1736E-03  0.1737E-03  0.1736E-03  0.1310E-04  0.1309E-04  0.1310E-04  0.1309E-04  0.1216E-19  0.1835E-19  0.1310E-04  0.1309E-04  0.1216E-19  0.1835E-19
      0.876  0.1916E-01  0.1924E-01  0.1145E-03  0.1150E-03  0.1145E-03  0.1150E-03  0.1145E-03  0.1150E-03  0.8636E-05  0.8670E-05  0.8636E-05  0.8670E-05  0.8010E-20  0.1215E-19  0.8636E-05  0.8670E-05  0.8010E-20  0.1215E-19
      0.961  0.5338E-02  0.5373E-02  0.3188E-04  0.3210E-04  0.3188E-04  0.3210E-04  0.3188E-04  0.3210E-04  0.2405E-05  0.2421E-05  0.2405E-05  0.2421E-05  0.2231E-20  0.3393E-20  0.2405E-05  0.2421E-05  0.2231E-20  0.3393E-20
      1.046  0.1137E-02  0.1145E-02  0.7759E-05  0.7797E-05  0.7759E-05  0.7797E-05  0.7759E-05  0.7797E-05  0.6811E-06  0.6831E-06  0.6811E-06  0.6831E-06  0.1687E-06  0.1674E-06  0.6811E-06  0.6831E-06  0.1687E-06  0.1674E-06
      1.130  0.4687E-03  0.4682E-03  0.7072E-05  0.7037E-05  0.7072E-05  0.7037E-05  0.7072E-05  0.7037E-05  0.9570E-06  0.9511E-06  0.9570E-06  0.9511E-06  0.7463E-06  0.7408E-06  0.9570E-06  0.9511E-06  0.7463E-06  0.7408E-06
      1.215  0.1438E-02  0.1427E-02  0.3160E-04  0.3137E-04  0.3160E-04  0.3137E-04  0.3160E-04  0.3137E-04  0.4665E-05  0.4630E-05  0.4665E-05  0.4630E-05  0.4020E-05  0.3991E-05  0.4665E-05  0.4630E-05  0.4020E-05  0.3991E-05
      1.299  0.7473E-02  0.7419E-02  0.1643E-03  0.1631E-03  0.1643E-03  0.1631E-03  0.1643E-03  0.1631E-03  0.2425E-04  0.2408E-04  0.2425E-04  0.2408E-04  0.2090E-04  0.2075E-04  0.2425E-04  0.2408E-04  0.2090E-04  0.2075E-04
      1.384  0.3269E-01  0.3250E-01  0.7186E-03  0.7145E-03  0.7186E-03  0.7145E-03  0.7186E-03  0.7145E-03  0.1061E-03  0.1055E-03  0.1061E-03  0.1055E-03  0.9142E-04  0.9091E-04  0.1061E-03  0.1055E-03  0.9142E-04  0.9091E-04
      1.469  0.7841E-01  0.7827E-01  0.1724E-02  0.1721E-02  0.1724E-02  0.1721E-02  0.1724E-02  0.1721E-02  0.2545E-03  0.2540E-03  0.2545E-03  0.2540E-03  0.2193E-03  0.2189E-03  0.2545E-03  0.2540E-03  0.2193E-03  0.2189E-03
      1.553  0.6319E-01  0.6341E-01  0.1389E-02  0.1394E-02  0.1389E-02  0.1394E-02  0.1389E-02  0.1394E-02  0.2051E-03  0.2058E-03  0.2051E-03  0.2058E-03  0.1767E-03  0.1774E-03  0.2051E-03  0.2058E-03  0.1767E-03  0.1774E-03
      1.638  0.1969E-01  0.1981E-01  0.4333E-03  0.4361E-03  0.4333E-03  0.4361E-03  0.4333E-03  0.4361E-03  0.6459E-04  0.6499E-04  0.6459E-04  0.6499E-04  0.5502E-04  0.5538E-04  0.6459E-04  0.6499E-04  0.5502E-04  0.5538E-04
      1.722  0.4263E-02  0.4291E-02  0.9609E-04  0.9671E-04  0.9609E-04  0.9671E-04  0.9609E-04  0.9671E-04  0.1695E-04  0.1702E-04  0.1695E-04  0.1702E-04  0.1177E-04  0.1185E-04  0.1695E-04  0.1702E-04  0.1177E-04  0.1185E-04
      1.807  0.1730E-02  0.1729E-02  0.5094E-04  0.5081E-04  0.5094E-04  0.5081E-04  0.5094E-04  0.5081E-04  0.2245E-04  0.2231E-04  0.2245E-04  0.2231E-04  0.4006E-05  0.4009E-05  0.2245E-04  0.2231E-04  0.4006E-05  0.4009E-05
      1.892  0.5052E-02  0.5015E-02  0.1790E-03  0.1777E-03  0.1790E-03  0.1777E-03  0.1790E-03  0.1777E-03  0.1050E-03  0.1042E-03  0.1050E-03  0.1042E-03  0.9748E-05  0.9679E-05  0.1050E-03  0.1042E-03  0.9748E-05  0.9679E-05
      1.976  0.2339E-01  0.2324E-01  0.8286E-03  0.8235E-03  0.8286E-03  0.8235E-03  0.8286E-03  0.8235E-03  0.4860E-03  0.4829E-03  0.4860E-03  0.4829E-03  0.4513E-04  0.4486E-04  0.4860E-03  0.4829E-03  0.4513E-04  0.4486E-04
      2.061  0.6631E-01  0.6612E-01  0.2349E-02  0.2343E-02  0.2349E-02  0.2343E-02  0.2349E-02  0.2343E-02  0.1379E-02  0.1375E-02  0.1379E-02  0.1375E-02  0.1279E-03  0.1276E-03  0.1379E-02  0.1375E-02  0.1279E-03  0.1276E-03
      2.145  0.6729E-01  0.6746E-01  0.2384E-02  0.2390E-02  0.2384E-02  0.2390E-02  0.2384E-02  0.2390E-02  0.1402E-02  0.1406E-02  0.1402E-02  0.1406E-02  0.1297E-03  0.1301E-03  0.1402E-02  0.1406E-02  0.1297E-03  0.1301E-03
      2.230  0.2453E-01  0.2468E-01  0.8708E-03  0.8761E-03  0.8708E-03  0.8761E-03  0.8708E-03  0.8761E-03  0.5307E-03  0.5335E-03  0.5307E-03  0.5335E-03  0.4805E-04  0.4834E-04  0.5307E-03  0.5335E-03  0.4805E-04  0.4834E-04
      2.315  0.7096E-02  0.7120E-02  0.2598E-03  0.2606E-03  0.2598E-03  0.2606E-03  0.2598E-03  0.2606E-03  0.2571E-03  0.2568E-03  0.2571E-03  0.2568E-03  0.1635E-04  0.1638E-04  0.2571E-03  0.2568E-03  0.1635E-04  0.1638E-04
      2.399  0.9449E-02  0.9402E-02  0.3752E-03  0.3733E-03  0.3752E-03  0.3733E-03  0.3752E-03  0.3733E-03  0.6915E-03  0.6873E-03  0.6915E-03  0.6873E-03  0.3550E-04  0.3528E-04  0.6915E-03  0.6873E-03  0.3550E-04  0.3528E-04
      2.484  0.2424E-01  0.2416E-01  0.1002E-02  0.9991E-03  0.1002E-02  0.9991E-03  0.1002E-02  0.9991E-03  0.1794E-02  0.1789E-02  0.1794E-02  0.1789E-02  0.1777E-03  0.1765E-03  0.1794E-02  0.1789E-02  0.1777E-03  0.1765E-03
      2.568  0.3675E-01  0.3670E-01  0.1716E-02  0.1712E-02  0.1716E-02  0.1712E-02  0.1716E-02  0.1712E-02  0.1798E-02  0.1802E-02  0.1798E-02  0.1802E-02  0.8456E-03  0.8406E-03  0.1798E-02  0.1802E-02  0.8456E-03  0.8406E-03
      2.653  0.6206E-01  0.6192E-01  0.3304E-02  0.3297E-02  0.3304E-02  0.3297E-02  0.3304E-02  0.3297E-02  0.1124E-02  0.1126E-02  0.1124E-02  0.1126E-02  0.2624E-02  0.2616E-02  0.1124E-02  0.1126E-02  0.2624E-02  0.2616E-02
      2.738  0.6653E-01  0.6665E-01  0.3630E-02  0.3637E-02  0.3630E-02  0.3637E-02  0.3630E-02  0.3637E-02  0.8092E-03  0.8110E-03  0.8092E-03  0.8110E-03  0.3066E-02  0.3072E-02  0.8092E-03  0.8110E-03  0.3066E-02  0.3072E-02
      2.822  0.2692E-01  0.2706E-01  0.1478E-02  0.1486E-02  0.1478E-02  0.1486E-02  0.1478E-02  0.1486E-02  0.3763E-03  0.3772E-03  0.3763E-03  0.3772E-03  0.1238E-02  0.1245E-02  0.3763E-03  0.3772E-03  0.1238E-02  0.1245E-02
      2.907  0.1007E-01  0.1008E-01  0.5779E-03  0.5782E-03  0.5779E-03  0.5782E-03  0.5779E-03  0.5782E-03  0.5232E-03  0.5199E-03  0.5232E-03  0.5199E-03  0.3815E-03  0.3826E-03  0.5232E-03  0.5199E-03  0.3815E-03  0.3826E-03
      2.991  0.2278E-01  0.2263E-01  0.1375E-02  0.1366E-02  0.1375E-02  0.1366E-02  0.1375E-02  0.1366E-02  0.2416E-02  0.2398E-02  0.2416E-02  0.2398E-02  0.5979E-03  0.5946E-03  0.2416E-02  0.2398E-02  0.5979E-03  0.5946E-03
      3.076  0.8698E-01  0.8651E-01  0.5222E-02  0.5195E-02  0.5222E-02  0.5195E-02  0.5222E-02  0.5195E-02  0.1033E-01  0.1026E-01  0.1033E-01  0.1026E-01  0.2148E-02  0.2138E-02  0.1033E-01  0.1026E-01  0.2148E-02  0.2138E-02
      3.161  0.1765E+00  0.1763E+00  0.1019E-01  0.1018E-01  0.1019E-01  0.1018E-01  0.1019E-01  0.1018E-01  0.2630E-01  0.2622E-01  0.2630E-01  0.2622E-01  0.4088E-02  0.4087E-02  0.2630E-01  0.2622E-01  0.4088E-02  0.4087E-02
      3.245  0.1372E+00  0.1376E+00  0.7197E-02  0.7223E-02  0.7197E-02  0.7223E-02  0.7197E-02  0.7223E-02  0.3124E-01  0.3125E-01  0.3124E-01  0.3125E-01  0.2806E-02  0.2817E-02  0.3124E-01  0.3125E-01  0.2806E-02  0.2817E-02
      3.330  0.7164E-01  0.7174E-01  0.2975E-02  0.2984E-02  0.2975E-02  0.2984E-02  0.2975E-02  0.2984E-02  0.3233E-01  0.3225E-01  0.3233E-01  0.3225E-01  0.1770E-02  0.1772E-02  0.3233E-01  0.3225E-01  0.1770E-02  0.1772E-02
      3.415  0.7156E-01  0.7154E-01  0.2207E-02  0.2209E-02  0.2207E-02  0.2209E-02  0.2207E-02  0.2209E-02  0.5009E-01  0.5004E-01  0.5009E-01  0.5004E-01  0.5211E-02  0.5197E-02  0.5009E-01  0.5004E-01  0.5211E-02  0.5197E-02
      3.499  0.5046E-01  0.5066E-01  0.1464E-02  0.1469E-02  0.1464E-02  0.1469E-02  0.1464E-02  0.1469E-02  0.3621E-01  0.3637E-01  0.3621E-01  0.3637E-01  0.2136E-01  0.2130E-01  0.3621E-01  0.3637E-01  0.2136E-01  0.2130E-01
      3.584  0.2926E-01  0.2931E-01  0.1193E-02  0.1191E-02  0.1193E-02  0.1191E-02  0.1193E-02  0.1191E-02  0.1348E-01  0.1354E-01  0.1348E-01  0.1354E-01  0.5048E-01  0.5044E-01  0.1348E-01  0.1354E-01  0.5048E-01  0.5044E-01
      3.668  0.4438E-01  0.4422E-01  0.3062E-02  0.3049E-02  0.3062E-02  0.3049E-02  0.3062E-02  0.3049E-02  0.1364E-01  0.1358E-01  0.1364E-01  0.1358E-01  0.5344E-01  0.5343E-01  0.1364E-01  0.1358E-01  0.5344E-01  0.5343E-01
      3.753  0.1041E+00  0.1037E+00  0.7752E-02  0.7728E-02  0.7752E-02  0.7728E-02  0.7752E-02  0.7728E-02  0.4418E-01  0.4392E-01  0.4418E-01  0.4392E-01  0.6180E-01  0.6175E-01  0.4418E-01  0.4392E-01  0.6180E-01  0.6175E-01
      3.838  0.1620E+00  0.1619E+00  0.1149E-01  0.1148E-01  0.1149E-01  0.1148E-01  0.1149E-01  0.1148E-01  0.9772E-01  0.9750E-01  0.9772E-01  0.9750E-01  0.7075E-01  0.7077E-01  0.9772E-01  0.9750E-01  0.7075E-01  0.7077E-01