   4   4   1   0
  0.1448970E+02  0.3869960E-09  0.3869960E-09  0.3869960E-09  0.5000000E-15
  1.000000000000000E-004
  CAR 
 unknown system                          
     25.83389673     -0.17167735  301     12.40945839      1.00000000
     -0.172  0.0000E+00  0.0000E+00  0.0000E+00  0.0000E+00
     -0.085  0.0000E+00  0.0000E+00  0.0000E+00  0.0000E+00
      0.002  0.0000E+00  0.0000E+00  0.0000E+00  0.0000E+00
      0.088  0.0000E+00  0.0000E+00  0.0000E+00  0.0000E+00
      0.175  0.0000E+00  0.0000E+00  0.0000E+00  0.0000E+00
      0.262  0.0000E+00  0.0000E+00  0.0000E+00  0.0000E+00
      0.348  0.0000E+00  0.0000E+00  0.0000E+00  0.0000E+00
      0.435  0.0000E+00  0.0000E+00  0.0000E+00  0.0000E+00
      0.522  0.0000E+00  0.0000E+00  0.0000E+00  0.0000E+00
      0.608  0.1379E-03  0.1364E-03  0.1196E-04  0.1183E-04
      0.695  0.6418E-03  0.6349E-03  0.6759E-04  0.6687E-04
      0.782  0.3598E-02  0.3559E-02  0.3794E-03  0.3754E-03
      0.869  0.1928E-01  0.1908E-01  0.2050E-02  0.2029E-02
      0.955  0.8279E-01  0.8217E-01  0.9227E-02  0.9152E-02
      1.042  0.1724E+00  0.1722E+00  0.2417E-01  0.2408E-01
      1.129  0.1117E+00  0.1124E+00  0.3385E-01  0.3382E-01
      1.215  0.2974E-01  0.3003E-01  0.3643E-01  0.3643E-01
      1.302  0.6014E-02  0.6072E-02  0.3695E-01  0.3695E-01
      1.389  0.2348E-02  0.2345E-02  0.3716E-01  0.3716E-01
      1.475  0.7418E-02  0.7339E-02  0.3782E-01  0.3781E-01
      1.562  0.4043E-01  0.4001E-01  0.4132E-01  0.4128E-01
      1.649  0.1878E+00  0.1863E+00  0.5761E-01  0.5743E-01
      1.735  0.4838E+00  0.4825E+00  0.9955E-01  0.9925E-01
      1.822  0.4059E+00  0.4078E+00  0.1347E+00  0.1346E+00
      1.909  0.1246E+00  0.1258E+00  0.1455E+00  0.1455E+00
      1.995  0.2581E-01  0.2606E-01  0.1478E+00  0.1478E+00
      2.082  0.9679E-02  0.9672E-02  0.1486E+00  0.1486E+00
      2.169  0.2856E-01  0.2826E-01  0.1512E+00  0.1511E+00
      2.256  0.1403E+00  0.1390E+00  0.1633E+00  0.1632E+00
      2.342  0.4307E+00  0.4288E+00  0.2007E+00  0.2004E+00
      2.429  0.4654E+00  0.4669E+00  0.2410E+00  0.2408E+00
      2.516  0.1704E+00  0.1718E+00  0.2558E+00  0.2557E+00
      2.602  0.4831E-01  0.4854E-01  0.2600E+00  0.2599E+00
      2.689  0.6860E-01  0.6811E-01  0.2659E+00  0.2658E+00
      2.776  0.1803E+00  0.1795E+00  0.2817E+00  0.2815E+00
      2.862  0.2582E+00  0.2578E+00  0.3040E+00  0.3039E+00
      2.949  0.4385E+00  0.4370E+00  0.3421E+00  0.3418E+00
      3.036  0.5021E+00  0.5034E+00  0.3856E+00  0.3854E+00
      3.122  0.2057E+00  0.2072E+00  0.4034E+00  0.4034E+00
      3.209  0.7614E-01  0.7621E-01  0.4100E+00  0.4100E+00
      3.296  0.1842E+00  0.1824E+00  0.4260E+00  0.4258E+00
      3.382  0.7594E+00  0.7535E+00  0.4920E+00  0.4913E+00
      3.469  0.1671E+01  0.1668E+01  0.6368E+00  0.6358E+00
      3.556  0.1380E+01  0.1384E+01  0.7564E+00  0.7558E+00
      3.642  0.1017E+01  0.1016E+01  0.8446E+00  0.8439E+00
      3.729  0.1237E+01  0.1238E+01  0.9518E+00  0.9512E+00
      3.816  0.9744E+00  0.9774E+00  0.1036E+01  0.1036E+01
      3.903  0.7873E+00  0.7880E+00  0.1105E+01  0.1105E+01
      3.989  0.9871E+00  0.9827E+00  0.1190E+01  0.1190E+01
      4.076  0.2207E+01  0.2198E+01  0.1382E+01  0.1380E+01
      4.163  0.3213E+01  0.3210E+01  0.1660E+01  0.1659E+01
      4.249  0.3279E+01  0.3281E+01  0.1945E+01  0.1943E+01
      4.336  0.2890E+01  0.2894E+01  0.2195E+01  0.2194E+01
      4.423  0.2872E+01  0.2868E+01  0.2444E+01  0.2443E+01
      4.509  0.3620E+01  0.3619E+01  0.2759E+01  0.2757E+01
      4.596  0.2854E+01  0.2859E+01  0.3006E+01  0.3005E+01
      4.683  0.2403E+01  0.2402E+01  0.3215E+01  0.3214E+01
      4.769  0.2229E+01  0.2232E+01  0.3408E+01  0.3407E+01
      4.856  0.2129E+01  0.2126E+01  0.3593E+01  0.3592E+01
      4.943  0.3422E+01  0.3413E+01  0.3890E+01  0.3888E+01
      5.029  0.4526E+01  0.4528E+01  0.4283E+01  0.4281E+01
      5.116  0.2731E+01  0.2743E+01  0.4520E+01  0.4519E+01
      5.203  0.1671E+01  0.1672E+01  0.4665E+01  0.4664E+01
      5.289  0.1727E+01  0.1728E+01  0.4815E+01  0.4814E+01
      5.376  0.1292E+01  0.1292E+01  0.4927E+01  0.4926E+01
      5.463  0.1838E+01  0.1832E+01  0.5087E+01  0.5085E+01
      5.550  0.2803E+01  0.2799E+01  0.5329E+01  0.5328E+01
      5.636  0.3128E+01  0.3130E+01  0.5601E+01  0.5600E+01
      5.723  0.2768E+01  0.2771E+01  0.5841E+01  0.5840E+01
      5.810  0.2437E+01  0.2438E+01  0.6052E+01  0.6051E+01
      5.896  0.2521E+01  0.2520E+01  0.6271E+01  0.6270E+01
      5.983  0.2015E+01  0.2018E+01  0.6446E+01  0.6445E+01
      6.070  0.1957E+01  0.1953E+01  0.6616E+01  0.6614E+01
      6.156  0.3280E+01  0.3271E+01  0.6900E+01  0.6898E+01
      6.243  0.4673E+01  0.4668E+01  0.7305E+01  0.7303E+01
      6.330  0.4594E+01  0.4601E+01  0.7704E+01  0.7702E+01
      6.416  0.2690E+01  0.2702E+01  0.7937E+01  0.7936E+01
      6.503  0.1422E+01  0.1423E+01  0.8060E+01  0.8060E+01
      6.590  0.1932E+01  0.1924E+01  0.8228E+01  0.8227E+01
      6.676  0.3811E+01  0.3796E+01  0.8559E+01  0.8556E+01
      6.763  0.5683E+01  0.5680E+01  0.9052E+01  0.9049E+01
      6.850  0.4785E+01  0.4797E+01  0.9467E+01  0.9465E+01
      6.937  0.3354E+01  0.3359E+01  0.9758E+01  0.9756E+01
      7.023  0.3118E+01  0.3117E+01  0.1003E+02  0.1003E+02
      7.110  0.3696E+01  0.3688E+01  0.1035E+02  0.1035E+02
      7.197  0.5058E+01  0.5053E+01  0.1079E+02  0.1079E+02
      7.283  0.4904E+01  0.4909E+01  0.1121E+02  0.1121E+02
      7.370  0.3922E+01  0.3929E+01  0.1155E+02  0.1155E+02
      7.457  0.2553E+01  0.2561E+01  0.1177E+02  0.1177E+02
      7.543  0.2207E+01  0.2203E+01  0.1197E+02  0.1197E+02
      7.630  0.3717E+01  0.3708E+01  0.1229E+02  0.1229E+02
      7.717  0.3901E+01  0.3908E+01  0.1263E+02  0.1263E+02
      7.803  0.2626E+01  0.2632E+01  0.1286E+02  0.1285E+02
      7.890  0.2280E+01  0.2280E+01  0.1305E+02  0.1305E+02
      7.977  0.2199E+01  0.2199E+01  0.1324E+02  0.1324E+02
      8.063  0.2027E+01  0.2029E+01  0.1342E+02  0.1342E+02
      8.150  0.1448E+01  0.1449E+01  0.1355E+02  0.1355E+02
      8.237  0.2162E+01  0.2151E+01  0.1373E+02  0.1373E+02
      8.323  0.4012E+01  0.4005E+01  0.1408E+02  0.1408E+02
      8.410  0.4055E+01  0.4060E+01  0.1443E+02  0.1443E+02
      8.497  0.3664E+01  0.3665E+01  0.1475E+02  0.1475E+02
      8.584  0.3506E+01  0.3508E+01  0.1505E+02  0.1505E+02
      8.670  0.3323E+01  0.3324E+01  0.1534E+02  0.1534E+02
      8.757  0.2745E+01  0.2750E+01  0.1558E+02  0.1558E+02
      8.844  0.1688E+01  0.1692E+01  0.1573E+02  0.1573E+02
      8.930  0.1821E+01  0.1817E+01  0.1589E+02  0.1589E+02
      9.017  0.2117E+01  0.2118E+01  0.1607E+02  0.1607E+02
      9.104  0.2077E+01  0.2073E+01  0.1625E+02  0.1625E+02
      9.190  0.2723E+01  0.2722E+01  0.1649E+02  0.1649E+02
      9.277  0.2310E+01  0.2313E+01  0.1669E+02  0.1669E+02
      9.364  0.2985E+01  0.2974E+01  0.1695E+02  0.1694E+02
      9.450  0.4752E+01  0.4749E+01  0.1736E+02  0.1736E+02
      9.537  0.3642E+01  0.3655E+01  0.1767E+02  0.1767E+02
      9.624  0.1489E+01  0.1497E+01  0.1780E+02  0.1780E+02
      9.710  0.9065E+00  0.9058E+00  0.1788E+02  0.1788E+02
      9.797  0.1343E+01  0.1338E+01  0.1800E+02  0.1800E+02
      9.884  0.2605E+01  0.2597E+01  0.1823E+02  0.1822E+02
      9.970  0.3970E+01  0.3962E+01  0.1857E+02  0.1857E+02
     10.057  0.4923E+01  0.4923E+01  0.1900E+02  0.1899E+02
     10.144  0.3970E+01  0.3976E+01  0.1934E+02  0.1934E+02
     10.231  0.3655E+01  0.3653E+01  0.1966E+02  0.1966E+02
     10.317  0.3405E+01  0.3409E+01  0.1995E+02  0.1995E+02
     10.404  0.2425E+01  0.2430E+01  0.2016E+02  0.2016E+02
     10.491  0.1884E+01  0.1883E+01  0.2033E+02  0.2033E+02
     10.577  0.2541E+01  0.2535E+01  0.2055E+02  0.2055E+02
     10.664  0.2957E+01  0.2960E+01  0.2080E+02  0.2080E+02
     10.751  0.1702E+01  0.1711E+01  0.2095E+02  0.2095E+02
     10.837  0.6332E+00  0.6358E+00  0.2101E+02  0.2101E+02
     10.924  0.7889E+00  0.7846E+00  0.2108E+02  0.2107E+02
     11.011  0.1657E+01  0.1654E+01  0.2122E+02  0.2122E+02
     11.097  0.1640E+01  0.1642E+01  0.2136E+02  0.2136E+02
     11.184  0.1230E+01  0.1232E+01  0.2147E+02  0.2147E+02
     11.271  0.7240E+00  0.7277E+00  0.2153E+02  0.2153E+02
     11.357  0.2257E+00  0.2278E+00  0.2155E+02  0.2155E+02
     11.444  0.4416E-01  0.4465E-01  0.2155E+02  0.2155E+02
     11.531  0.6695E-02  0.6774E-02  0.2156E+02  0.2156E+02
     11.618  0.1958E-03  0.1942E-03  0.2156E+02  0.2156E+02
     11.704  0.9120E-03  0.9044E-03  0.2156E+02  0.2156E+02
     11.791  0.5139E-02  0.5096E-02  0.2156E+02  0.2156E+02
     11.878  0.2907E-01  0.2883E-01  0.2156E+02  0.2156E+02
     11.964  0.1432E+00  0.1422E+00  0.2157E+02  0.2157E+02
     12.051  0.4506E+00  0.4490E+00  0.2161E+02  0.2161E+02
     12.138  0.5819E+00  0.5821E+00  0.2166E+02  0.2166E+02
     12.224  0.6938E+00  0.6910E+00  0.2172E+02  0.2172E+02
     12.311  0.1384E+01  0.1380E+01  0.2184E+02  0.2184E+02
     12.398  0.1646E+01  0.1646E+01  0.2198E+02  0.2198E+02
     12.484  0.1070E+01  0.1075E+01  0.2208E+02  0.2208E+02
     12.571  0.3350E+00  0.3377E+00  0.2211E+02  0.2211E+02
     12.658  0.1187E+00  0.1188E+00  0.2212E+02  0.2212E+02
     12.744  0.2743E+00  0.2719E+00  0.2214E+02  0.2214E+02
     12.831  0.8359E+00  0.8319E+00  0.2221E+02  0.2221E+02
     12.918  0.9503E+00  0.9533E+00  0.2229E+02  0.2229E+02
     13.004  0.3564E+00  0.3597E+00  0.2233E+02  0.2233E+02
     13.091  0.7703E-01  0.7785E-01  0.2233E+02  0.2233E+02
     13.178  0.2104E-01  0.2110E-01  0.2233E+02  0.2233E+02
     13.265  0.3923E-01  0.3872E-01  0.2234E+02  0.2234E+02
     13.351  0.1837E+00  0.1817E+00  0.2235E+02  0.2235E+02
     13.438  0.4839E+00  0.4821E+00  0.2240E+02  0.2239E+02
     13.525  0.4367E+00  0.4389E+00  0.2243E+02  0.2243E+02
     13.611  0.2598E+00  0.2600E+00  0.2246E+02  0.2246E+02
     13.698  0.5879E+00  0.5841E+00  0.2251E+02  0.2251E+02
     13.785  0.1320E+01  0.1317E+01  0.2262E+02  0.2262E+02
     13.871  0.1236E+01  0.1241E+01  0.2273E+02  0.2273E+02
     13.958  0.4522E+00  0.4559E+00  0.2277E+02  0.2277E+02
     14.045  0.9874E-01  0.9966E-01  0.2278E+02  0.2278E+02
     14.131  0.3038E-01  0.3042E-01  0.2278E+02  0.2278E+02
     14.218  0.6957E-01  0.6880E-01  0.2279E+02  0.2279E+02
     14.305  0.3318E+00  0.3288E+00  0.2281E+02  0.2281E+02
     14.391  0.9256E+00  0.9222E+00  0.2289E+02  0.2289E+02
     14.478  0.8665E+00  0.8703E+00  0.2297E+02  0.2297E+02
     14.565  0.2853E+00  0.2880E+00  0.2299E+02  0.2299E+02
     14.651  0.6436E-01  0.6495E-01  0.2300E+02  0.2300E+02
     14.738  0.4618E-01  0.4596E-01  0.2300E+02  0.2300E+02
     14.825  0.1845E+00  0.1829E+00  0.2302E+02  0.2302E+02
     14.912  0.6850E+00  0.6813E+00  0.2308E+02  0.2308E+02
     14.998  0.1033E+01  0.1034E+01  0.2317E+02  0.2317E+02
     15.085  0.4995E+00  0.5027E+00  0.2321E+02  0.2321E+02
     15.172  0.1966E+00  0.1966E+00  0.2323E+02  0.2323E+02
     15.258  0.4121E+00  0.4084E+00  0.2326E+02  0.2326E+02
     15.345  0.9862E+00  0.9831E+00  0.2335E+02  0.2335E+02
     15.432  0.8334E+00  0.8377E+00  0.2342E+02  0.2342E+02
     15.518  0.4398E+00  0.4403E+00  0.2346E+02  0.2346E+02
     15.605  0.7687E+00  0.7647E+00  0.2353E+02  0.2353E+02
     15.692  0.1026E+01  0.1028E+01  0.2362E+02  0.2362E+02
     15.778  0.4515E+00  0.4555E+00  0.2366E+02  0.2366E+02
     15.865  0.1020E+00  0.1031E+00  0.2366E+02  0.2366E+02
     15.952  0.1890E-01  0.1913E-01  0.2367E+02  0.2367E+02
     16.038  0.0000E+00  0.0000E+00  0.2367E+02  0.2367E+02
     16.125  0.1072E-03  0.1058E-03  0.2367E+02  0.2367E+02
     16.212  0.6028E-03  0.5949E-03  0.2367E+02  0.2367E+02
     16.299  0.4092E-02  0.4039E-02  0.2367E+02  0.2367E+02
     16.385  0.2242E-01  0.2213E-01  0.2367E+02  0.2367E+02
     16.472  0.1196E+00  0.1181E+00  0.2368E+02  0.2368E+02
     16.559  0.5167E+00  0.5119E+00  0.2372E+02  0.2372E+02
     16.645  0.1358E+01  0.1352E+01  0.2384E+02  0.2384E+02
     16.732  0.2031E+01  0.2030E+01  0.2402E+02  0.2402E+02
     16.819  0.1644E+01  0.1649E+01  0.2416E+02  0.2416E+02
     16.905  0.1228E+01  0.1228E+01  0.2427E+02  0.2427E+02
     16.992  0.1224E+01  0.1225E+01  0.2437E+02  0.2437E+02
     17.079  0.6630E+00  0.6681E+00  0.2443E+02  0.2443E+02
     17.165  0.2905E+00  0.2910E+00  0.2446E+02  0.2446E+02
     17.252  0.4507E+00  0.4489E+00  0.2449E+02  0.2449E+02
     17.339  0.4773E+00  0.4790E+00  0.2454E+02  0.2454E+02
     17.425  0.1749E+00  0.1767E+00  0.2455E+02  0.2455E+02
     17.512  0.3707E-01  0.3751E-01  0.2455E+02  0.2455E+02
     17.599  0.6780E-02  0.6864E-02  0.2456E+02  0.2456E+02
     17.685  0.0000E+00  0.0000E+00  0.2456E+02  0.2456E+02
     17.772  0.9676E-04  0.9574E-04  0.2456E+02  0.2456E+02
     17.859  0.6857E-03  0.6784E-03  0.2456E+02  0.2456E+02
     17.946  0.4116E-02  0.4072E-02  0.2456E+02  0.2456E+02
     18.032  0.2265E-01  0.2241E-01  0.2456E+02  0.2456E+02
     18.119  0.1129E+00  0.1119E+00  0.2457E+02  0.2457E+02
     18.206  0.4217E+00  0.4186E+00  0.2460E+02  0.2460E+02
     18.292  0.1197E+01  0.1190E+01  0.2471E+02  0.2471E+02
     18.379  0.2303E+01  0.2299E+01  0.2491E+02  0.2491E+02
     18.466  0.2447E+01  0.2448E+01  0.2512E+02  0.2512E+02
     18.552  0.1924E+01  0.1931E+01  0.2529E+02  0.2529E+02
     18.639  0.7623E+00  0.7693E+00  0.2535E+02  0.2535E+02
     18.726  0.1812E+00  0.1829E+00  0.2537E+02  0.2537E+02
     18.812  0.1189E+00  0.1181E+00  0.2538E+02  0.2538E+02
     18.899  0.4107E+00  0.4063E+00  0.2542E+02  0.2542E+02
     18.986  0.9939E+00  0.9909E+00  0.2550E+02  0.2550E+02
     19.072  0.7698E+00  0.7751E+00  0.2557E+02  0.2557E+02
     19.159  0.2281E+00  0.2309E+00  0.2559E+02  0.2559E+02
     19.246  0.6164E-01  0.6208E-01  0.2559E+02  0.2559E+02
     19.333  0.1018E+00  0.1010E+00  0.2560E+02  0.2560E+02
     19.419  0.4377E+00  0.4338E+00  0.2564E+02  0.2564E+02
     19.506  0.1181E+01  0.1177E+01  0.2574E+02  0.2574E+02
     19.593  0.1281E+01  0.1284E+01  0.2585E+02  0.2585E+02
     19.679  0.6313E+00  0.6355E+00  0.2591E+02  0.2591E+02
     19.766  0.1782E+00  0.1796E+00  0.2592E+02  0.2592E+02
     19.853  0.1070E+00  0.1063E+00  0.2593E+02  0.2593E+02
     19.939  0.3042E+00  0.3017E+00  0.2596E+02  0.2596E+02
     20.026  0.5241E+00  0.5242E+00  0.2601E+02  0.2601E+02
     20.113  0.2882E+00  0.2907E+00  0.2603E+02  0.2603E+02
     20.199  0.1042E+00  0.1048E+00  0.2604E+02  0.2604E+02
     20.286  0.1851E+00  0.1840E+00  0.2606E+02  0.2606E+02
     20.373  0.5271E+00  0.5252E+00  0.2610E+02  0.2610E+02
     20.459  0.7271E+00  0.7267E+00  0.2616E+02  0.2616E+02
     20.546  0.6727E+00  0.6737E+00  0.2622E+02  0.2622E+02
     20.633  0.3341E+00  0.3361E+00  0.2625E+02  0.2625E+02
     20.719  0.1186E+00  0.1188E+00  0.2626E+02  0.2626E+02
     20.806  0.2167E+00  0.2145E+00  0.2628E+02  0.2628E+02
     20.893  0.7812E+00  0.7755E+00  0.2635E+02  0.2635E+02
     20.980  0.1451E+01  0.1449E+01  0.2647E+02  0.2647E+02
     21.066  0.1597E+01  0.1597E+01  0.2661E+02  0.2661E+02
     21.153  0.1441E+01  0.1441E+01  0.2674E+02  0.2674E+02
     21.240  0.1299E+01  0.1300E+01  0.2685E+02  0.2685E+02
     21.326  0.6651E+00  0.6705E+00  0.2691E+02  0.2691E+02
     21.413  0.1663E+00  0.1683E+00  0.2692E+02  0.2692E+02
     21.500  0.3068E-01  0.3107E-01  0.2693E+02  0.2693E+02
     21.586  0.8945E-02  0.8989E-02  0.2693E+02  0.2693E+02
     21.673  0.1996E-01  0.1981E-01  0.2693E+02  0.2693E+02
     21.760  0.1029E+00  0.1022E+00  0.2694E+02  0.2694E+02
     21.846  0.3851E+00  0.3833E+00  0.2697E+02  0.2697E+02
     21.933  0.6809E+00  0.6792E+00  0.2703E+02  0.2703E+02
     22.020  0.9852E+00  0.9787E+00  0.2711E+02  0.2711E+02
     22.106  0.1872E+01  0.1867E+01  0.2728E+02  0.2728E+02
     22.193  0.1640E+01  0.1648E+01  0.2742E+02  0.2742E+02
     22.280  0.5713E+00  0.5769E+00  0.2747E+02  0.2747E+02
     22.366  0.1281E+00  0.1295E+00  0.2748E+02  0.2748E+02
     22.453  0.6529E-01  0.6528E-01  0.2749E+02  0.2749E+02
     22.540  0.2018E+00  0.2008E+00  0.2750E+02  0.2750E+02
     22.627  0.5378E+00  0.5366E+00  0.2755E+02  0.2755E+02
     22.713  0.5676E+00  0.5679E+00  0.2760E+02  0.2760E+02
     22.800  0.3947E+00  0.3947E+00  0.2763E+02  0.2763E+02
     22.887  0.5058E+00  0.5033E+00  0.2768E+02  0.2768E+02
     22.973  0.7513E+00  0.7463E+00  0.2774E+02  0.2774E+02
     23.060  0.1000E+01  0.9907E+00  0.2783E+02  0.2783E+02
     23.147  0.1030E+01  0.1037E+01  0.2792E+02  0.2792E+02
     23.233  0.4039E+00  0.4131E+00  0.2795E+02  0.2795E+02
     23.320  0.8613E-01  0.8861E-01  0.2796E+02  0.2796E+02
     23.407  0.1584E-01  0.1632E-01  0.2796E+02  0.2796E+02
     23.493  0.0000E+00  0.0000E+00  0.2796E+02  0.2796E+02
     23.580  0.0000E+00  0.0000E+00  0.2796E+02  0.2796E+02
     23.667  0.0000E+00  0.0000E+00  0.2796E+02  0.2796E+02
     23.753  0.0000E+00  0.0000E+00  0.2796E+02  0.2796E+02
     23.840  0.0000E+00  0.0000E+00  0.2796E+02  0.2796E+02
     23.927  0.0000E+00  0.0000E+00  0.2796E+02  0.2796E+02
     24.014  0.0000E+00  0.0000E+00  0.2796E+02  0.2796E+02
     24.100  0.0000E+00  0.0000E+00  0.2796E+02  0.2796E+02
     24.187  0.4029E-04  0.3910E-04  0.2796E+02  0.2796E+02
     24.274  0.1877E-03  0.1822E-03  0.2796E+02  0.2796E+02
     24.360  0.1060E-02  0.1028E-02  0.2796E+02  0.2796E+02
     24.447  0.5901E-02  0.5730E-02  0.2796E+02  0.2796E+02
     24.534  0.3055E-01  0.2974E-01  0.2797E+02  0.2797E+02
     24.620  0.1136E+00  0.1117E+00  0.2798E+02  0.2798E+02
     24.707  0.1718E+00  0.1724E+00  0.2799E+02  0.2799E+02
     24.794  0.8107E-01  0.8279E-01  0.2800E+02  0.2800E+02
     24.880  0.1874E-01  0.1928E-01  0.2800E+02  0.2800E+02
     24.967  0.3493E-02  0.3598E-02  0.2800E+02  0.2800E+02
     25.054  0.0000E+00  0.0000E+00  0.2800E+02  0.2800E+02
     25.140  0.0000E+00  0.0000E+00  0.2800E+02  0.2800E+02
     25.227  0.0000E+00  0.0000E+00  0.2800E+02  0.2800E+02
     25.314  0.0000E+00  0.0000E+00  0.2800E+02  0.2800E+02
     25.400  0.0000E+00  0.0000E+00  0.2800E+02  0.2800E+02
     25.487  0.0000E+00  0.0000E+00  0.2800E+02  0.2800E+02
     25.574  0.0000E+00  0.0000E+00  0.2800E+02  0.2800E+02
     25.661  0.0000E+00  0.0000E+00  0.2800E+02  0.2800E+02
     25.747  0.0000E+00  0.0000E+00  0.2800E+02  0.2800E+02
     25.834  0.0000E+00  0.0000E+00  0.2800E+02  0.2800E+02
     25.83389673     -0.17167735  301     12.40945839      1.00000000
     -0.172  0.0000E+00  0.0000E+00  0.0000E+00  0.0000E+00  0.0000E+00  0.0000E+00  0.0000E+00  0.0000E+00  0.0000E+00  0.0000E+00  0.0000E+00  0.0000E+00  0.0000E+00  0.0000E+00  0.0000E+00  0.0000E+00  0.0000E+00  0.0000E+00
     -0.085  0.0000E+00  0.0000E+00  0.0000E+00  0.0000E+00  0.0000E+00  0.0000E+00  0.0000E+00  0.0000E+00  0.0000E+00  0.0000E+00  0.0000E+00  0.0000E+00  0.0000E+00  0.0000E+00  0.0000E+00  0.0000E+00  0.0000E+00  0.0000E+00
      0.002  0.0000E+00  0.0000E+00  0.0000E+00  0.0000E+00  0.0000E+00  0.0000E+00  0.0000E+00  0.0000E+00  0.0000E+00  0.0000E+00  0.0000E+00  0.0000E+00  0.0000E+00  0.0000E+00  0.0000E+00  0.0000E+00  0.0000E+00  0.0000E+00
      0.088  0.0000E+00  0.0000E+00  0.0000E+00  0.0000E+00  0.0000E+00  0.0000E+00  0.0000E+00  0.0000E+00  0.0000E+00  0.0000E+00  0.0000E+00  0.0000E+00  0.0000E+00  0.0000E+00  0.0000E+00  0.0000E+00  0.0000E+00  0.0000E+00
      0.175  0.0000E+00  0.0000E+00  0.0000E+00  0.0000E+00  0.0000E+00  0.0000E+00  0.0000E+00  0.0000E+00  0.0000E+00  0.0000E+00  0.0000E+00  0.0000E+00  0.0000E+00  0.0000E+00  0.0000E+00  0.0000E+00  0.0000E+00  0.0000E+00
      0.262  0.0000E+00  0.0000E+00  0.0000E+00  0.0000E+00  0.0000E+00  0.0000E+00  0.0000E+00  0.0000E+00  0.0000E+00  0.0000E+00  0.0000E+00  0.0000E+00  0.0000E+00  0.0000E+00  0.0000E+00  0.0000E+00  0.0000E+00  0.0000E+00
      0.348  0.0000E+00  0.0000E+00  0.0000E+00  0.0000E+00  0.0000E+00  0.0000E+00  0.0000E+00  0.0000E+00  0.0000E+00  0.0000E+00  0.0000E+00  0.0000E+00  0.0000E+00  0.0000E+00  0.0000E+00  0.0000E+00  0.0000E+00  0.0000E+00
      0.435  0.0000E+00  0.0000E+00  0.0000E+00  0.0000E+00  0.0000E+00  0.0000E+00  0.0000E+00  0.0000E+00  0.0000E+00  0.0000E+00  0.0000E+00  0.0000E+00  0.0000E+00  0.0000E+00  0.0000E+00  0.0000E+00  0.0000E+00  0.0000E+00
      0.522  0.0000E+00  0.0000E+00  0.0000E+00  0.0000E+00  0.0000E+00  0.0000E+00  0.0000E+00  0.0000E+00  0.0000E+00  0.0000E+00  0.0000E+00  0.0000E+00  0.0000E+00  0.0000E+00  0.0000E+00  0.0000E+00  0.0000E+00  0.0000E+00
      0.608  0.2396E-04  0.2370E-04  0.1473E-06  0.1457E-06  0.1473E-06  0.1457E-06  0.1473E-06  0.1457E-06  0.1092E-07  0.1080E-07  0.1092E-07  0.1080E-07  0.1377E-22  0.5335E-22  0.1092E-07  0.1080E-07  0.1377E-22  0.5335E-22
      0.695  0.1115E-03  0.1103E-03  0.6854E-06  0.6781E-06  0.6854E-06  0.6781E-06  0.6854E-06  0.6781E-06  0.5083E-07  0.5027E-07  0.5083E-07  0.5027E-07  0.6407E-22  0.2483E-21  0.5083E-07  0.5027E-07  0.6407E-22  0.2483E-21
      0.782  0.6248E-03  0.6181E-03  0.3842E-05  0.3802E-05  0.3842E-05  0.3802E-05  0.3842E-05  0.3802E-05  0.2849E-06  0.2818E-06  0.2849E-06  0.2818E-06  0.3591E-21  0.1392E-20  0.2849E-06  0.2818E-06  0.3591E-21  0.1392E-20
      0.869  0.3348E-02  0.3314E-02  0.2059E-04  0.2038E-04  0.2059E-04  0.2038E-04  0.2059E-04  0.2038E-04  0.1527E-05  0.1511E-05  0.1527E-05  0.1511E-05  0.1924E-20  0.7461E-20  0.1527E-05  0.1511E-05  0.1924E-20  0.7461E-20
      0.955  0.1438E-01  0.1427E-01  0.8842E-04  0.8776E-04  0.8842E-04  0.8776E-04  0.8842E-04  0.8776E-04  0.6557E-05  0.6506E-05  0.6557E-05  0.6506E-05  0.8265E-20  0.3213E-19  0.6557E-05  0.6506E-05  0.8265E-20  0.3213E-19
      1.042  0.2994E-01  0.2990E-01  0.1841E-03  0.1839E-03  0.1841E-03  0.1839E-03  0.1841E-03  0.1839E-03  0.1365E-04  0.1363E-04  0.1365E-04  0.1363E-04  0.1721E-19  0.6733E-19  0.1365E-04  0.1363E-04  0.1721E-19  0.6733E-19
      1.129  0.1940E-01  0.1952E-01  0.1193E-03  0.1200E-03  0.1193E-03  0.1200E-03  0.1193E-03  0.1200E-03  0.8847E-05  0.8900E-05  0.8847E-05  0.8900E-05  0.1115E-19  0.4395E-19  0.8847E-05  0.8900E-05  0.1115E-19  0.4395E-19
      1.215  0.5166E-02  0.5216E-02  0.3176E-04  0.3208E-04  0.3176E-04  0.3208E-04  0.3176E-04  0.3208E-04  0.2355E-05  0.2378E-05  0.2355E-05  0.2378E-05  0.2969E-20  0.1174E-19  0.2355E-05  0.2378E-05  0.2969E-20  0.1174E-19
      1.302  0.1042E-02  0.1052E-02  0.7169E-05  0.7223E-05  0.7169E-05  0.7223E-05  0.7169E-05  0.7223E-05  0.6055E-06  0.6086E-06  0.6055E-06  0.6086E-06  0.1302E-06  0.1288E-06  0.6055E-06  0.6086E-06  0.1302E-06  0.1288E-06
      1.389  0.3943E-03  0.3939E-03  0.5980E-05  0.5940E-05  0.5980E-05  0.5940E-05  0.5980E-05  0.5940E-05  0.7874E-06  0.7806E-06  0.7874E-06  0.7806E-06  0.6063E-06  0.5998E-06  0.7874E-06  0.7806E-06  0.6063E-06  0.5998E-06
      1.475  0.1213E-02  0.1200E-02  0.2745E-04  0.2716E-04  0.2745E-04  0.2716E-04  0.2745E-04  0.2716E-04  0.3970E-05  0.3927E-05  0.3970E-05  0.3927E-05  0.3409E-05  0.3373E-05  0.3970E-05  0.3927E-05  0.3409E-05  0.3373E-05
      1.562  0.6609E-02  0.6540E-02  0.1496E-03  0.1481E-03  0.1496E-03  0.1481E-03  0.1496E-03  0.1481E-03  0.2164E-04  0.2141E-04  0.2164E-04  0.2141E-04  0.1858E-04  0.1839E-04  0.2164E-04  0.2141E-04  0.1858E-04  0.1839E-04
      1.649  0.3071E-01  0.3045E-01  0.6951E-03  0.6893E-03  0.6951E-03  0.6893E-03  0.6951E-03  0.6893E-03  0.1005E-03  0.9966E-04  0.1005E-03  0.9966E-04  0.8632E-04  0.8561E-04  0.1005E-03  0.9966E-04  0.8632E-04  0.8561E-04
      1.735  0.7909E-01  0.7887E-01  0.1790E-02  0.1786E-02  0.1790E-02  0.1786E-02  0.1790E-02  0.1786E-02  0.2589E-03  0.2582E-03  0.2589E-03  0.2582E-03  0.2224E-03  0.2218E-03  0.2589E-03  0.2582E-03  0.2224E-03  0.2218E-03
      1.822  0.6635E-01  0.6666E-01  0.1502E-02  0.1509E-02  0.1502E-02  0.1509E-02  0.1502E-02  0.1509E-02  0.2172E-03  0.2182E-03  0.2172E-03  0.2182E-03  0.1865E-03  0.1874E-03  0.2172E-03  0.2182E-03  0.1865E-03  0.1874E-03
      1.909  0.2037E-01  0.2056E-01  0.4615E-03  0.4658E-03  0.4615E-03  0.4658E-03  0.4615E-03  0.4658E-03  0.6721E-04  0.6781E-04  0.6721E-04  0.6781E-04  0.5724E-04  0.5777E-04  0.6721E-04  0.6781E-04  0.5724E-04  0.5777E-04
      1.995  0.4208E-02  0.4249E-02  0.9718E-04  0.9811E-04  0.9718E-04  0.9811E-04  0.9718E-04  0.9811E-04  0.1624E-04  0.1635E-04  0.1624E-04  0.1635E-04  0.1170E-04  0.1182E-04  0.1624E-04  0.1635E-04  0.1170E-04  0.1182E-04
      2.082  0.1522E-02  0.1522E-02  0.4532E-04  0.4519E-04  0.4532E-04  0.4519E-04  0.4532E-04  0.4519E-04  0.1888E-04  0.1872E-04  0.1888E-04  0.1872E-04  0.3575E-05  0.3582E-05  0.1888E-04  0.1872E-04  0.3575E-05  0.3582E-05
      2.169  0.4338E-02  0.4292E-02  0.1581E-03  0.1564E-03  0.1581E-03  0.1564E-03  0.1581E-03  0.1564E-03  0.9079E-04  0.8982E-04  0.9079E-04  0.8982E-04  0.8311E-05  0.8225E-05  0.9079E-04  0.8982E-04  0.8311E-05  0.8225E-05
      2.256  0.2131E-01  0.2111E-01  0.7764E-03  0.7694E-03  0.7764E-03  0.7694E-03  0.7764E-03  0.7694E-03  0.4460E-03  0.4418E-03  0.4460E-03  0.4418E-03  0.4082E-04  0.4046E-04  0.4460E-03  0.4418E-03  0.4082E-04  0.4046E-04
      2.342  0.6542E-01  0.6513E-01  0.2384E-02  0.2374E-02  0.2384E-02  0.2374E-02  0.2384E-02  0.2374E-02  0.1370E-02  0.1364E-02  0.1370E-02  0.1364E-02  0.1253E-03  0.1248E-03  0.1370E-02  0.1364E-02  0.1253E-03  0.1248E-03
      2.429  0.7069E-01  0.7092E-01  0.2576E-02  0.2585E-02  0.2576E-02  0.2585E-02  0.2576E-02  0.2585E-02  0.1483E-02  0.1488E-02  0.1483E-02  0.1488E-02  0.1353E-03  0.1358E-03  0.1483E-02  0.1488E-02  0.1353E-03  0.1358E-03
      2.516  0.2583E-01  0.2605E-01  0.9428E-03  0.9509E-03  0.9428E-03  0.9509E-03  0.9428E-03  0.9509E-03  0.5602E-03  0.5645E-03  0.5602E-03  0.5645E-03  0.4992E-04  0.5035E-04  0.5602E-03  0.5645E-03  0.4992E-04  0.5035E-04
      2.602  0.7107E-02  0.7144E-02  0.2664E-03  0.2677E-03  0.2664E-03  0.2677E-03  0.2664E-03  0.2677E-03  0.2554E-03  0.2550E-03  0.2554E-03  0.2550E-03  0.1514E-04  0.1520E-04  0.2554E-03  0.2550E-03  0.1514E-04  0.1520E-04
      2.689  0.9318E-02  0.9253E-02  0.3765E-03  0.3738E-03  0.3765E-03  0.3738E-03  0.3765E-03  0.3738E-03  0.6980E-03  0.6922E-03  0.6980E-03  0.6922E-03  0.2931E-04  0.2905E-04  0.6980E-03  0.6922E-03  0.2931E-04  0.2905E-04
      2.776  0.2423E-01  0.2413E-01  0.1016E-02  0.1012E-02  0.1016E-02  0.1012E-02  0.1016E-02  0.1012E-02  0.1853E-02  0.1846E-02  0.1853E-02  0.1846E-02  0.1520E-03  0.1505E-03  0.1853E-02  0.1846E-02  0.1520E-03  0.1505E-03
      2.862  0.3505E-01  0.3499E-01  0.1664E-02  0.1659E-02  0.1664E-02  0.1659E-02  0.1664E-02  0.1659E-02  0.1802E-02  0.1808E-02  0.1802E-02  0.1808E-02  0.7660E-03  0.7592E-03  0.1802E-02  0.1808E-02  0.7660E-03  0.7592E-03
      2.949  0.6030E-01  0.6009E-01  0.3309E-02  0.3296E-02  0.3309E-02  0.3296E-02  0.3309E-02  0.3296E-02  0.1088E-02  0.1090E-02  0.1088E-02  0.1090E-02  0.2571E-02  0.2559E-02  0.1088E-02  0.1090E-02  0.2571E-02  0.2559E-02
      3.036  0.6920E-01  0.6937E-01  0.3893E-02  0.3903E-02  0.3893E-02  0.3903E-02  0.3893E-02  0.3903E-02  0.8278E-03  0.8303E-03  0.8278E-03  0.8303E-03  0.3218E-02  0.3226E-02  0.8278E-03  0.8303E-03  0.3218E-02  0.3226E-02
      3.122  0.2824E-01  0.2845E-01  0.1597E-02  0.1609E-02  0.1597E-02  0.1609E-02  0.1597E-02  0.1609E-02  0.3862E-03  0.3878E-03  0.3862E-03  0.3878E-03  0.1312E-02  0.1322E-02  0.3862E-03  0.3878E-03  0.1312E-02  0.1322E-02
      3.209  0.9798E-02  0.9815E-02  0.5724E-03  0.5733E-03  0.5724E-03  0.5733E-03  0.5724E-03  0.5733E-03  0.5364E-03  0.5317E-03  0.5364E-03  0.5317E-03  0.3762E-03  0.3781E-03  0.5364E-03  0.5317E-03  0.3762E-03  0.3781E-03
      3.296  0.2160E-01  0.2140E-01  0.1318E-02  0.1306E-02  0.1318E-02  0.1306E-02  0.1318E-02  0.1306E-02  0.2570E-02  0.2543E-02  0.2570E-02  0.2543E-02  0.5517E-03  0.5473E-03  0.2570E-02  0.2543E-02  0.5517E-03  0.5473E-03
      3.382  0.8750E-01  0.8682E-01  0.5302E-02  0.5263E-02  0.5302E-02  0.5263E-02  0.5302E-02  0.5263E-02  0.1160E-01  0.1149E-01  0.1160E-01  0.1149E-01  0.2107E-02  0.2092E-02  0.1160E-01  0.1149E-01  0.2107E-02  0.2092E-02
      3.469  0.1859E+00  0.1856E+00  0.1087E-01  0.1085E-01  0.1087E-01  0.1085E-01  0.1087E-01  0.1085E-01  0.2977E-01  0.2967E-01  0.2977E-01  0.2967E-01  0.4228E-02  0.4225E-02  0.2977E-01  0.2967E-01  0.4228E-02  0.4225E-02
      3.556  0.1403E+00  0.1409E+00  0.7533E-02  0.7572E-02  0.7533E-02  0.7572E-02  0.7533E-02  0.7572E-02  0.3262E-01  0.3265E-01  0.3262E-01  0.3265E-01  0.3069E-02  0.3083E-02  0.3262E-01  0.3265E-01  0.3069E-02  0.3083E-02
      3.642  0.7753E-01  0.7761E-01  0.3172E-02  0.3184E-02  0.3172E-02  0.3184E-02  0.3172E-02  0.3184E-02  0.3802E-01  0.3789E-01  0.3802E-01  0.3789E-01  0.3003E-02  0.2996E-02  0.3802E-01  0.3789E-01  0.3003E-02  0.2996E-02
      3.729  0.7417E-01  0.7428E-01  0.2292E-02  0.2297E-02  0.2292E-02  0.2297E-02  0.2292E-02  0.2297E-02  0.5154E-01  0.5158E-01  0.5154E-01  0.5158E-01  0.1136E-01  0.1130E-01  0.5154E-01  0.5158E-01  0.1136E-01  0.1130E-01
      3.816  0.4288E-01  0.4311E-01  0.1309E-02  0.1315E-02  0.1309E-02  0.1315E-02  0.1309E-02  0.1315E-02  0.2717E-01  0.2737E-01  0.2717E-01  0.2737E-01  0.3764E-01  0.3752E-01  0.2717E-01  0.2737E-01  0.3764E-01  0.3752E-01
      3.903  0.2651E-01  0.2652E-01  0.1269E-02  0.1265E-02  0.1269E-02  0.1265E-02  0.1269E-02  0.1265E-02  0.9911E-02  0.9948E-02  0.9911E-02  0.9948E-02  0.5143E-01  0.5145E-01  0.9911E-02  0.9948E-02  0.5143E-01  0.5145E-01
      3.989  0.4957E-01  0.4927E-01  0.3744E-02  0.3721E-02  0.3744E-02  0.3721E-02  0.3744E-02  0.3721E-02  0.1635E-01  0.1621E-01  0.1635E-01  0.1621E-01  0.4520E-01  0.4514E-01  0.1635E-01  0.1621E-01  0.4520E-01  0.4514E-01
      4.076  0.1187E+00  0.1182E+00  0.8980E-02  0.8948E-02  0.8980E-02  0.8948E-02  0.8980E-02  0.8948E-02  0.5602E-01  0.5563E-01  0.5602E-01  0.5563E-01  0.6839E-01  0.6830E-01  0.5602E-01  0.5563E-01  0.6839E-01  0.6830E-01
      4.163  0.1631E+00  0.1630E+00  0.1187E-01  0.1187E-01  0.1187E-01  0.1187E-01  0.1187E-01  0.1187E-01  0.1090E+00  0.1088E+00  0.1090E+00  0.1088E+00  0.6962E-01  0.6966E-01  0.1090E+00  0.1088E+00  0.6962E-01  0.6966E-01