   4   4   1   0
  0.2269248E+02  0.4494147E-09  0.4494147E-09  0.4494147E-09  0.5000000E-15
  1.000000000000000E-004
  CAR 
 unknown system                          
     15.63456352     -2.44501360  301      5.36004489      1.00000000
     -2.445  0.0000E+00  0.0000E+00  0.0000E+00  0.0000E+00
     -2.385  0.0000E+00  0.0000E+00  0.0000E+00  0.0000E+00
     -2.324  0.0000E+00  0.0000E+00  0.0000E+00  0.0000E+00
     -2.264  0.0000E+00  0.0000E+00  0.0000E+00  0.0000E+00
     -2.204  0.0000E+00  0.0000E+00  0.0000E+00  0.0000E+00
     -2.144  0.0000E+00  0.0000E+00  0.0000E+00  0.0000E+00
     -2.083  0.6183E-04  0.0000E+00  0.3726E-05  0.0000E+00
     -2.023  0.1445E-03  0.2058E-03  0.1243E-04  0.1240E-04
     -1.963  0.4818E-03  0.4805E-03  0.4147E-04  0.4136E-04
     -1.903  0.1603E-02  0.1598E-02  0.1381E-03  0.1377E-03
     -1.842  0.5290E-02  0.5275E-02  0.4568E-03  0.4556E-03
     -1.782  0.1701E-01  0.1697E-01  0.1482E-02  0.1478E-02
     -1.722  0.5047E-01  0.5035E-01  0.4524E-02  0.4513E-02
     -1.662  0.1198E+00  0.1196E+00  0.1175E-01  0.1172E-01
     -1.601  0.1787E+00  0.1786E+00  0.2251E-01  0.2249E-01
     -1.541  0.1421E+00  0.1422E+00  0.3107E-01  0.3106E-01
     -1.481  0.6733E-01  0.6747E-01  0.3513E-01  0.3513E-01
     -1.421  0.2791E-01  0.2796E-01  0.3682E-01  0.3681E-01
     -1.360  0.2300E-01  0.2297E-01  0.3820E-01  0.3820E-01
     -1.300  0.5272E-01  0.5259E-01  0.4138E-01  0.4137E-01
     -1.240  0.1507E+00  0.1503E+00  0.5046E-01  0.5042E-01
     -1.179  0.3572E+00  0.3567E+00  0.7200E-01  0.7194E-01
     -1.119  0.5360E+00  0.5359E+00  0.1043E+00  0.1042E+00
     -1.059  0.4276E+00  0.4281E+00  0.1301E+00  0.1300E+00
     -0.999  0.2031E+00  0.2035E+00  0.1423E+00  0.1423E+00
     -0.938  0.8213E-01  0.8228E-01  0.1473E+00  0.1473E+00
     -0.878  0.6084E-01  0.6079E-01  0.1509E+00  0.1509E+00
     -0.818  0.1249E+00  0.1246E+00  0.1585E+00  0.1584E+00
     -0.758  0.3038E+00  0.3032E+00  0.1768E+00  0.1767E+00
     -0.697  0.5157E+00  0.5153E+00  0.2079E+00  0.2078E+00
     -0.637  0.4783E+00  0.4788E+00  0.2367E+00  0.2367E+00
     -0.577  0.2565E+00  0.2570E+00  0.2522E+00  0.2522E+00
     -0.517  0.1240E+00  0.1242E+00  0.2597E+00  0.2596E+00
     -0.456  0.1270E+00  0.1268E+00  0.2673E+00  0.2673E+00
     -0.396  0.2434E+00  0.2429E+00  0.2820E+00  0.2819E+00
     -0.336  0.4236E+00  0.4230E+00  0.3075E+00  0.3074E+00
     -0.275  0.5900E+00  0.5896E+00  0.3431E+00  0.3430E+00
     -0.215  0.5747E+00  0.5752E+00  0.3778E+00  0.3777E+00
     -0.155  0.3555E+00  0.3562E+00  0.3992E+00  0.3991E+00
     -0.095  0.2340E+00  0.2340E+00  0.4133E+00  0.4132E+00
     -0.034  0.3672E+00  0.3662E+00  0.4354E+00  0.4353E+00
      0.026  0.8140E+00  0.8120E+00  0.4845E+00  0.4843E+00
      0.086  0.1332E+01  0.1331E+01  0.5648E+00  0.5645E+00
      0.146  0.1393E+01  0.1394E+01  0.6489E+00  0.6486E+00
      0.207  0.1119E+01  0.1120E+01  0.7163E+00  0.7161E+00
      0.267  0.9177E+00  0.9173E+00  0.7716E+00  0.7713E+00
      0.327  0.1020E+01  0.1018E+01  0.8331E+00  0.8327E+00
      0.387  0.1227E+01  0.1225E+01  0.9070E+00  0.9065E+00
      0.448  0.1238E+01  0.1237E+01  0.9816E+00  0.9811E+00
      0.508  0.1398E+01  0.1393E+01  0.1066E+01  0.1065E+01
      0.568  0.2287E+01  0.2276E+01  0.1204E+01  0.1202E+01
      0.629  0.3464E+01  0.3455E+01  0.1413E+01  0.1411E+01
      0.689  0.3928E+01  0.3925E+01  0.1649E+01  0.1647E+01
      0.749  0.3982E+01  0.3978E+01  0.1889E+01  0.1887E+01
      0.809  0.4398E+01  0.4389E+01  0.2155E+01  0.2152E+01
      0.870  0.4994E+01  0.4986E+01  0.2456E+01  0.2452E+01
      0.930  0.5439E+01  0.5437E+01  0.2783E+01  0.2780E+01
      0.990  0.5411E+01  0.5418E+01  0.3110E+01  0.3107E+01
      1.050  0.5006E+01  0.5010E+01  0.3412E+01  0.3409E+01
      1.111  0.4856E+01  0.4853E+01  0.3704E+01  0.3701E+01
      1.171  0.5122E+01  0.5112E+01  0.4013E+01  0.4009E+01
      1.231  0.5191E+01  0.5192E+01  0.4326E+01  0.4323E+01
      1.291  0.4372E+01  0.4383E+01  0.4590E+01  0.4587E+01
      1.352  0.3743E+01  0.3747E+01  0.4816E+01  0.4813E+01
      1.412  0.3867E+01  0.3861E+01  0.5049E+01  0.5046E+01
      1.472  0.4483E+01  0.4473E+01  0.5319E+01  0.5316E+01
      1.532  0.5028E+01  0.5020E+01  0.5622E+01  0.5618E+01
      1.593  0.5365E+01  0.5358E+01  0.5946E+01  0.5941E+01
      1.653  0.5713E+01  0.5710E+01  0.6291E+01  0.6286E+01
      1.713  0.6022E+01  0.6018E+01  0.6654E+01  0.6649E+01
      1.774  0.6808E+01  0.6798E+01  0.7064E+01  0.7058E+01
      1.834  0.7312E+01  0.7310E+01  0.7505E+01  0.7499E+01
      1.894  0.6908E+01  0.6917E+01  0.7921E+01  0.7916E+01
      1.954  0.6512E+01  0.6511E+01  0.8314E+01  0.8309E+01
      2.015  0.7569E+01  0.7550E+01  0.8770E+01  0.8764E+01
      2.075  0.9163E+01  0.9146E+01  0.9323E+01  0.9315E+01
      2.135  0.9791E+01  0.9791E+01  0.9913E+01  0.9906E+01
      2.195  0.9139E+01  0.9151E+01  0.1046E+02  0.1046E+02
      2.256  0.8090E+01  0.8101E+01  0.1095E+02  0.1095E+02
      2.316  0.7175E+01  0.7186E+01  0.1138E+02  0.1138E+02
      2.376  0.6501E+01  0.6508E+01  0.1178E+02  0.1177E+02
      2.436  0.5888E+01  0.5897E+01  0.1213E+02  0.1213E+02
      2.497  0.5140E+01  0.5142E+01  0.1244E+02  0.1244E+02
      2.557  0.5371E+01  0.5356E+01  0.1277E+02  0.1276E+02
      2.617  0.6196E+01  0.6182E+01  0.1314E+02  0.1313E+02
      2.678  0.6821E+01  0.6809E+01  0.1355E+02  0.1354E+02
      2.738  0.7644E+01  0.7630E+01  0.1401E+02  0.1400E+02
      2.798  0.8190E+01  0.8185E+01  0.1451E+02  0.1450E+02
      2.858  0.7841E+01  0.7852E+01  0.1498E+02  0.1497E+02
      2.919  0.6492E+01  0.6513E+01  0.1537E+02  0.1536E+02
      2.979  0.5141E+01  0.5158E+01  0.1568E+02  0.1568E+02
      3.039  0.4728E+01  0.4728E+01  0.1597E+02  0.1596E+02
      3.099  0.5385E+01  0.5373E+01  0.1629E+02  0.1628E+02
      3.160  0.6201E+01  0.6191E+01  0.1666E+02  0.1666E+02
      3.220  0.6680E+01  0.6673E+01  0.1707E+02  0.1706E+02
      3.280  0.6602E+01  0.6611E+01  0.1747E+02  0.1746E+02
      3.340  0.5962E+01  0.5970E+01  0.1782E+02  0.1782E+02
      3.401  0.6358E+01  0.6338E+01  0.1821E+02  0.1820E+02
      3.461  0.8219E+01  0.8188E+01  0.1870E+02  0.1869E+02
      3.521  0.9324E+01  0.9323E+01  0.1927E+02  0.1926E+02
      3.582  0.8420E+01  0.8446E+01  0.1977E+02  0.1977E+02
      3.642  0.6530E+01  0.6562E+01  0.2017E+02  0.2016E+02
      3.702  0.5016E+01  0.5039E+01  0.2047E+02  0.2047E+02
      3.762  0.3575E+01  0.3602E+01  0.2069E+02  0.2068E+02
      3.823  0.1923E+01  0.1945E+01  0.2080E+02  0.2080E+02
      3.883  0.9968E+00  0.1004E+01  0.2086E+02  0.2086E+02
      3.943  0.9192E+00  0.9200E+00  0.2092E+02  0.2092E+02
      4.003  0.1181E+01  0.1177E+01  0.2099E+02  0.2099E+02
      4.064  0.1533E+01  0.1528E+01  0.2108E+02  0.2108E+02
      4.124  0.1718E+01  0.1720E+01  0.2119E+02  0.2118E+02
      4.184  0.1357E+01  0.1365E+01  0.2127E+02  0.2127E+02
      4.244  0.7729E+00  0.7792E+00  0.2131E+02  0.2131E+02
      4.305  0.4737E+00  0.4751E+00  0.2134E+02  0.2134E+02
      4.365  0.5152E+00  0.5138E+00  0.2137E+02  0.2137E+02
      4.425  0.5802E+00  0.5809E+00  0.2141E+02  0.2141E+02
      4.485  0.4198E+00  0.4222E+00  0.2143E+02  0.2143E+02
      4.546  0.2946E+00  0.2953E+00  0.2145E+02  0.2145E+02
      4.606  0.3906E+00  0.3894E+00  0.2148E+02  0.2148E+02
      4.666  0.5505E+00  0.5501E+00  0.2151E+02  0.2151E+02
      4.727  0.4643E+00  0.4658E+00  0.2154E+02  0.2154E+02
      4.787  0.2643E+00  0.2652E+00  0.2155E+02  0.2155E+02
      4.847  0.2251E+00  0.2240E+00  0.2157E+02  0.2157E+02
      4.907  0.4430E+00  0.4391E+00  0.2159E+02  0.2159E+02
      4.968  0.8965E+00  0.8917E+00  0.2165E+02  0.2165E+02
      5.028  0.1134E+01  0.1135E+01  0.2172E+02  0.2171E+02
      5.088  0.8994E+00  0.9024E+00  0.2177E+02  0.2177E+02
      5.148  0.8261E+00  0.8248E+00  0.2182E+02  0.2182E+02
      5.209  0.1089E+01  0.1086E+01  0.2189E+02  0.2188E+02
      5.269  0.1053E+01  0.1056E+01  0.2195E+02  0.2195E+02
      5.329  0.6357E+00  0.6397E+00  0.2199E+02  0.2199E+02
      5.389  0.4250E+00  0.4255E+00  0.2201E+02  0.2201E+02
      5.450  0.6257E+00  0.6229E+00  0.2205E+02  0.2205E+02
      5.510  0.1025E+01  0.1023E+01  0.2211E+02  0.2211E+02
      5.570  0.1007E+01  0.1010E+01  0.2217E+02  0.2217E+02
      5.631  0.5824E+00  0.5854E+00  0.2221E+02  0.2221E+02
      5.691  0.3383E+00  0.3386E+00  0.2223E+02  0.2223E+02
      5.751  0.4001E+00  0.3982E+00  0.2225E+02  0.2225E+02
      5.811  0.5592E+00  0.5584E+00  0.2229E+02  0.2229E+02
      5.872  0.4926E+00  0.4946E+00  0.2232E+02  0.2232E+02
      5.932  0.3361E+00  0.3374E+00  0.2234E+02  0.2234E+02
      5.992  0.4123E+00  0.4111E+00  0.2236E+02  0.2236E+02
      6.052  0.7692E+00  0.7664E+00  0.2241E+02  0.2241E+02
      6.113  0.1050E+01  0.1049E+01  0.2247E+02  0.2247E+02
      6.173  0.8236E+00  0.8264E+00  0.2252E+02  0.2252E+02
      6.233  0.4130E+00  0.4154E+00  0.2255E+02  0.2255E+02
      6.293  0.2210E+00  0.2215E+00  0.2256E+02  0.2256E+02
      6.354  0.3008E+00  0.2996E+00  0.2258E+02  0.2258E+02
      6.414  0.7069E+00  0.7035E+00  0.2262E+02  0.2262E+02
      6.474  0.1350E+01  0.1346E+01  0.2270E+02  0.2270E+02
      6.535  0.1541E+01  0.1543E+01  0.2279E+02  0.2279E+02
      6.595  0.1031E+01  0.1035E+01  0.2286E+02  0.2286E+02
      6.655  0.5639E+00  0.5658E+00  0.2289E+02  0.2289E+02
      6.715  0.5015E+00  0.5014E+00  0.2292E+02  0.2292E+02
      6.776  0.5988E+00  0.5988E+00  0.2296E+02  0.2296E+02
      6.836  0.5067E+00  0.5074E+00  0.2299E+02  0.2299E+02
      6.896  0.4048E+00  0.4046E+00  0.2301E+02  0.2301E+02
      6.956  0.6065E+00  0.6046E+00  0.2305E+02  0.2305E+02
      7.017  0.1009E+01  0.1007E+01  0.2311E+02  0.2311E+02
      7.077  0.1011E+01  0.1013E+01  0.2317E+02  0.2317E+02
      7.137  0.5704E+00  0.5727E+00  0.2320E+02  0.2320E+02
      7.197  0.2485E+00  0.2496E+00  0.2322E+02  0.2322E+02
      7.258  0.1836E+00  0.1840E+00  0.2323E+02  0.2323E+02
      7.318  0.3613E+00  0.3614E+00  0.2325E+02  0.2325E+02
      7.378  0.8200E+00  0.8198E+00  0.2330E+02  0.2330E+02
      7.438  0.1296E+01  0.1295E+01  0.2338E+02  0.2338E+02
      7.499  0.1440E+01  0.1437E+01  0.2347E+02  0.2347E+02
      7.559  0.1652E+01  0.1649E+01  0.2357E+02  0.2357E+02
      7.619  0.1705E+01  0.1705E+01  0.2367E+02  0.2367E+02
      7.680  0.1114E+01  0.1117E+01  0.2374E+02  0.2374E+02
      7.740  0.4983E+00  0.5002E+00  0.2377E+02  0.2377E+02
      7.800  0.2449E+00  0.2456E+00  0.2378E+02  0.2378E+02
      7.860  0.2931E+00  0.2931E+00  0.2380E+02  0.2380E+02
      7.921  0.5729E+00  0.5723E+00  0.2383E+02  0.2383E+02
      7.981  0.8765E+00  0.8749E+00  0.2389E+02  0.2389E+02
      8.041  0.1007E+01  0.1006E+01  0.2395E+02  0.2395E+02
      8.101  0.1037E+01  0.1039E+01  0.2401E+02  0.2401E+02
      8.162  0.1184E+01  0.1186E+01  0.2408E+02  0.2408E+02
      8.222  0.1265E+01  0.1265E+01  0.2416E+02  0.2416E+02
      8.282  0.1004E+01  0.1001E+01  0.2422E+02  0.2422E+02
      8.342  0.9493E+00  0.9450E+00  0.2427E+02  0.2427E+02
      8.403  0.1151E+01  0.1149E+01  0.2434E+02  0.2434E+02
      8.463  0.9496E+00  0.9528E+00  0.2440E+02  0.2440E+02
      8.523  0.4677E+00  0.4709E+00  0.2443E+02  0.2443E+02
      8.584  0.1660E+00  0.1674E+00  0.2444E+02  0.2444E+02
      8.644  0.5309E-01  0.5358E-01  0.2444E+02  0.2444E+02
      8.704  0.1662E-01  0.1677E-01  0.2444E+02  0.2444E+02
      8.764  0.6451E-02  0.6485E-02  0.2444E+02  0.2444E+02
      8.825  0.5233E-02  0.5191E-02  0.2444E+02  0.2444E+02
      8.885  0.1684E-01  0.1671E-01  0.2445E+02  0.2445E+02
      8.945  0.5021E-01  0.4987E-01  0.2445E+02  0.2445E+02
      9.005  0.1205E+00  0.1199E+00  0.2446E+02  0.2446E+02
      9.066  0.1822E+00  0.1821E+00  0.2447E+02  0.2447E+02
      9.126  0.1545E+00  0.1549E+00  0.2448E+02  0.2448E+02
      9.186  0.1072E+00  0.1074E+00  0.2448E+02  0.2448E+02
      9.246  0.1551E+00  0.1544E+00  0.2449E+02  0.2449E+02
      9.307  0.4039E+00  0.4015E+00  0.2452E+02  0.2452E+02
      9.367  0.9785E+00  0.9742E+00  0.2458E+02  0.2458E+02
      9.427  0.1571E+01  0.1569E+01  0.2467E+02  0.2467E+02
      9.488  0.1380E+01  0.1383E+01  0.2475E+02  0.2475E+02
      9.548  0.7368E+00  0.7399E+00  0.2480E+02  0.2480E+02
      9.608  0.4216E+00  0.4214E+00  0.2482E+02  0.2482E+02
      9.668  0.5667E+00  0.5631E+00  0.2486E+02  0.2486E+02
      9.729  0.1052E+01  0.1048E+01  0.2492E+02  0.2492E+02
      9.789  0.1408E+01  0.1410E+01  0.2501E+02  0.2501E+02
      9.849  0.1542E+01  0.1547E+01  0.2510E+02  0.2510E+02
      9.909  0.1875E+01  0.1877E+01  0.2521E+02  0.2521E+02
      9.970  0.2024E+01  0.2023E+01  0.2533E+02  0.2533E+02
     10.030  0.1744E+01  0.1743E+01  0.2544E+02  0.2544E+02
     10.090  0.1442E+01  0.1440E+01  0.2553E+02  0.2553E+02
     10.150  0.1345E+01  0.1344E+01  0.2561E+02  0.2561E+02
     10.211  0.9587E+00  0.9614E+00  0.2566E+02  0.2566E+02
     10.271  0.4562E+00  0.4582E+00  0.2569E+02  0.2569E+02
     10.331  0.2199E+00  0.2202E+00  0.2571E+02  0.2571E+02
     10.391  0.2488E+00  0.2476E+00  0.2572E+02  0.2572E+02
     10.452  0.4966E+00  0.4942E+00  0.2575E+02  0.2575E+02
     10.512  0.8015E+00  0.8002E+00  0.2580E+02  0.2580E+02
     10.572  0.1031E+01  0.1031E+01  0.2586E+02  0.2586E+02
     10.633  0.1220E+01  0.1221E+01  0.2593E+02  0.2593E+02
     10.693  0.9819E+00  0.9845E+00  0.2599E+02  0.2599E+02
     10.753  0.4970E+00  0.4991E+00  0.2602E+02  0.2602E+02
     10.813  0.2408E+00  0.2412E+00  0.2604E+02  0.2604E+02
     10.874  0.2529E+00  0.2518E+00  0.2605E+02  0.2605E+02
     10.934  0.4437E+00  0.4420E+00  0.2608E+02  0.2608E+02
     10.994  0.5524E+00  0.5527E+00  0.2611E+02  0.2611E+02
     11.054  0.3971E+00  0.3986E+00  0.2614E+02  0.2614E+02
     11.115  0.2658E+00  0.2663E+00  0.2615E+02  0.2615E+02
     11.175  0.3454E+00  0.3445E+00  0.2617E+02  0.2617E+02
     11.235  0.5268E+00  0.5261E+00  0.2621E+02  0.2621E+02
     11.295  0.4868E+00  0.4879E+00  0.2624E+02  0.2624E+02
     11.356  0.2584E+00  0.2597E+00  0.2625E+02  0.2625E+02
     11.416  0.1067E+00  0.1073E+00  0.2626E+02  0.2626E+02
     11.476  0.7288E-01  0.7284E-01  0.2626E+02  0.2626E+02
     11.537  0.1475E+00  0.1468E+00  0.2627E+02  0.2627E+02
     11.597  0.4153E+00  0.4134E+00  0.2630E+02  0.2630E+02
     11.657  0.1010E+01  0.1007E+01  0.2636E+02  0.2636E+02
     11.717  0.1710E+01  0.1710E+01  0.2646E+02  0.2646E+02
     11.778  0.1897E+01  0.1899E+01  0.2657E+02  0.2657E+02
     11.838  0.1473E+01  0.1474E+01  0.2666E+02  0.2666E+02
     11.898  0.1077E+01  0.1075E+01  0.2673E+02  0.2673E+02
     11.958  0.1170E+01  0.1167E+01  0.2680E+02  0.2680E+02
     12.019  0.1219E+01  0.1219E+01  0.2687E+02  0.2687E+02
     12.079  0.9342E+00  0.9340E+00  0.2693E+02  0.2693E+02
     12.139  0.7613E+00  0.7607E+00  0.2697E+02  0.2697E+02
     12.199  0.5938E+00  0.5964E+00  0.2701E+02  0.2701E+02
     12.260  0.3402E+00  0.3431E+00  0.2703E+02  0.2703E+02
     12.320  0.2414E+00  0.2418E+00  0.2705E+02  0.2705E+02
     12.380  0.4070E+00  0.4046E+00  0.2707E+02  0.2707E+02
     12.441  0.8326E+00  0.8289E+00  0.2712E+02  0.2712E+02
     12.501  0.1083E+01  0.1083E+01  0.2719E+02  0.2718E+02
     12.561  0.7586E+00  0.7628E+00  0.2723E+02  0.2723E+02
     12.621  0.3561E+00  0.3595E+00  0.2725E+02  0.2725E+02
     12.682  0.2212E+00  0.2247E+00  0.2727E+02  0.2727E+02
     12.742  0.3769E+00  0.3841E+00  0.2729E+02  0.2729E+02
     12.802  0.8929E+00  0.9068E+00  0.2734E+02  0.2734E+02
     12.862  0.1536E+01  0.1545E+01  0.2744E+02  0.2744E+02
     12.923  0.1455E+01  0.1445E+01  0.2752E+02  0.2752E+02
     12.983  0.7975E+00  0.7841E+00  0.2757E+02  0.2757E+02
     13.043  0.3973E+00  0.3911E+00  0.2759E+02  0.2760E+02
     13.103  0.3953E+00  0.3940E+00  0.2762E+02  0.2762E+02
     13.164  0.6025E+00  0.6058E+00  0.2765E+02  0.2766E+02
     13.224  0.7182E+00  0.7301E+00  0.2770E+02  0.2770E+02
     13.284  0.8356E+00  0.8590E+00  0.2775E+02  0.2775E+02
     13.344  0.1110E+01  0.1124E+01  0.2782E+02  0.2782E+02
     13.405  0.1007E+01  0.9892E+00  0.2788E+02  0.2788E+02
     13.465  0.5315E+00  0.5098E+00  0.2791E+02  0.2791E+02
     13.525  0.1982E+00  0.1880E+00  0.2792E+02  0.2792E+02
     13.586  0.6311E-01  0.5957E-01  0.2792E+02  0.2792E+02
     13.646  0.1991E-01  0.1880E-01  0.2793E+02  0.2793E+02
     13.706  0.7897E-02  0.7554E-02  0.2793E+02  0.2793E+02
     13.766  0.6845E-02  0.6822E-02  0.2793E+02  0.2793E+02
     13.827  0.2178E-01  0.2171E-01  0.2793E+02  0.2793E+02
     13.887  0.6255E-01  0.6238E-01  0.2793E+02  0.2793E+02
     13.947  0.1372E+00  0.1370E+00  0.2794E+02  0.2794E+02
     14.007  0.1794E+00  0.1794E+00  0.2795E+02  0.2795E+02
     14.068  0.1243E+00  0.1245E+00  0.2796E+02  0.2796E+02
     14.128  0.5333E-01  0.5348E-01  0.2796E+02  0.2796E+02
     14.188  0.1811E-01  0.1817E-01  0.2796E+02  0.2796E+02
     14.248  0.5645E-02  0.5664E-02  0.2796E+02  0.2796E+02
     14.309  0.1712E-02  0.1718E-02  0.2796E+02  0.2796E+02
     14.369  0.6006E-03  0.6585E-03  0.2796E+02  0.2796E+02
     14.429  0.2007E-03  0.3318E-03  0.2796E+02  0.2796E+02
     14.490  0.6690E-03  0.1105E-02  0.2796E+02  0.2796E+02
     14.550  0.2222E-02  0.3659E-02  0.2796E+02  0.2796E+02
     14.610  0.7303E-02  0.1190E-01  0.2796E+02  0.2796E+02
     14.670  0.2316E-01  0.3657E-01  0.2796E+02  0.2797E+02
     14.731  0.6590E-01  0.9515E-01  0.2797E+02  0.2797E+02
     14.791  0.1415E+00  0.1684E+00  0.2798E+02  0.2798E+02
     14.851  0.1787E+00  0.1626E+00  0.2799E+02  0.2799E+02
     14.911  0.1198E+00  0.8705E-01  0.2800E+02  0.2800E+02
     14.972  0.5047E-01  0.3258E-01  0.2800E+02  0.2800E+02
     15.032  0.1701E-01  0.1050E-01  0.2800E+02  0.2800E+02
     15.092  0.5290E-02  0.3219E-02  0.2800E+02  0.2800E+02
     15.152  0.1603E-02  0.9710E-03  0.2800E+02  0.2800E+02
     15.213  0.4818E-03  0.0000E+00  0.2800E+02  0.2800E+02
     15.273  0.0000E+00  0.0000E+00  0.2800E+02  0.2800E+02
     15.333  0.0000E+00  0.0000E+00  0.2800E+02  0.2800E+02
     15.394  0.0000E+00  0.0000E+00  0.2800E+02  0.2800E+02
     15.454  0.0000E+00  0.0000E+00  0.2800E+02  0.2800E+02
     15.514  0.0000E+00  0.0000E+00  0.2800E+02  0.2800E+02
     15.574  0.0000E+00  0.0000E+00  0.2800E+02  0.2800E+02
     15.635  0.0000E+00  0.0000E+00  0.2800E+02  0.2800E+02
     15.63456352     -2.44501360  301      5.36004489      1.00000000
     -2.445  0.0000E+00  0.0000E+00  0.0000E+00  0.0000E+00  0.0000E+00  0.0000E+00  0.0000E+00  0.0000E+00  0.0000E+00  0.0000E+00  0.0000E+00  0.0000E+00  0.0000E+00  0.0000E+00  0.0000E+00  0.0000E+00  0.0000E+00  0.0000E+00
     -2.385  0.0000E+00  0.0000E+00  0.0000E+00  0.0000E+00  0.0000E+00  0.0000E+00  0.0000E+00  0.0000E+00  0.0000E+00  0.0000E+00  0.0000E+00  0.0000E+00  0.0000E+00  0.0000E+00  0.0000E+00  0.0000E+00  0.0000E+00  0.0000E+00
     -2.324  0.0000E+00  0.0000E+00  0.0000E+00  0.0000E+00  0.0000E+00  0.0000E+00  0.0000E+00  0.0000E+00  0.0000E+00  0.0000E+00  0.0000E+00  0.0000E+00  0.0000E+00  0.0000E+00  0.0000E+00  0.0000E+00  0.0000E+00  0.0000E+00
     -2.264  0.0000E+00  0.0000E+00  0.0000E+00  0.0000E+00  0.0000E+00  0.0000E+00  0.0000E+00  0.0000E+00  0.0000E+00  0.0000E+00  0.0000E+00  0.0000E+00  0.0000E+00  0.0000E+00  0.0000E+00  0.0000E+00  0.0000E+00  0.0000E+00
     -2.204  0.0000E+00  0.0000E+00  0.0000E+00  0.0000E+00  0.0000E+00  0.0000E+00  0.0000E+00  0.0000E+00  0.0000E+00  0.0000E+00  0.0000E+00  0.0000E+00  0.0000E+00  0.0000E+00  0.0000E+00  0.0000E+00  0.0000E+00  0.0000E+00
     -2.144  0.0000E+00  0.0000E+00  0.0000E+00  0.0000E+00  0.0000E+00  0.0000E+00  0.0000E+00  0.0000E+00  0.0000E+00  0.0000E+00  0.0000E+00  0.0000E+00  0.0000E+00  0.0000E+00  0.0000E+00  0.0000E+00  0.0000E+00  0.0000E+00
     -2.083  0.7389E-05  0.0000E+00  0.2847E-07  0.0000E+00  0.2847E-07  0.0000E+00  0.2847E-07  0.0000E+00  0.3233E-08  0.0000E+00  0.3233E-08  0.0000E+00  0.3752E-20  0.0000E+00  0.3233E-08  0.0000E+00  0.3752E-20  0.0000E+00
     -2.023  0.1727E-04  0.2459E-04  0.6654E-07  0.9475E-07  0.6654E-07  0.9475E-07  0.6654E-07  0.9475E-07  0.7554E-08  0.1076E-07  0.7554E-08  0.1076E-07  0.8768E-20  0.4035E-20  0.7554E-08  0.1076E-07  0.8768E-20  0.4035E-20
     -1.963  0.5758E-04  0.5743E-04  0.2219E-06  0.2213E-06  0.2219E-06  0.2213E-06  0.2219E-06  0.2213E-06  0.2519E-07  0.2512E-07  0.2519E-07  0.2512E-07  0.2924E-19  0.9422E-20  0.2519E-07  0.2512E-07  0.2924E-19  0.9422E-20
     -1.903  0.1915E-03  0.1910E-03  0.7381E-06  0.7360E-06  0.7381E-06  0.7360E-06  0.7381E-06  0.7360E-06  0.8379E-07  0.8357E-07  0.8379E-07  0.8357E-07  0.9725E-19  0.3134E-19  0.8379E-07  0.8357E-07  0.9725E-19  0.3134E-19
     -1.842  0.6321E-03  0.6305E-03  0.2436E-05  0.2429E-05  0.2436E-05  0.2429E-05  0.2436E-05  0.2429E-05  0.2765E-06  0.2758E-06  0.2765E-06  0.2758E-06  0.3210E-18  0.1034E-18  0.2765E-06  0.2758E-06  0.3210E-18  0.1034E-18
     -1.782  0.2033E-02  0.2028E-02  0.7834E-05  0.7814E-05  0.7834E-05  0.7814E-05  0.7834E-05  0.7814E-05  0.8894E-06  0.8872E-06  0.8894E-06  0.8872E-06  0.1032E-17  0.3327E-18  0.8894E-06  0.8872E-06  0.1032E-17  0.3327E-18
     -1.722  0.6031E-02  0.6018E-02  0.2324E-04  0.2319E-04  0.2324E-04  0.2319E-04  0.2324E-04  0.2319E-04  0.2639E-05  0.2633E-05  0.2639E-05  0.2633E-05  0.3063E-17  0.9874E-18  0.2639E-05  0.2633E-05  0.3063E-17  0.9874E-18
     -1.662  0.1432E-01  0.1430E-01  0.5518E-04  0.5510E-04  0.5518E-04  0.5510E-04  0.5518E-04  0.5510E-04  0.6265E-05  0.6256E-05  0.6265E-05  0.6256E-05  0.7271E-17  0.2346E-17  0.6265E-05  0.6256E-05  0.7271E-17  0.2346E-17
     -1.601  0.2135E-01  0.2135E-01  0.8228E-04  0.8226E-04  0.8228E-04  0.8226E-04  0.8228E-04  0.8226E-04  0.9341E-05  0.9340E-05  0.9341E-05  0.9340E-05  0.1084E-16  0.3503E-17  0.9341E-05  0.9340E-05  0.1084E-16  0.3503E-17
     -1.541  0.1697E-01  0.1700E-01  0.6613E-04  0.6620E-04  0.6613E-04  0.6620E-04  0.6613E-04  0.6620E-04  0.7628E-05  0.7637E-05  0.7628E-05  0.7637E-05  0.1991E-06  0.1984E-06  0.7628E-05  0.7637E-05  0.1991E-06  0.1984E-06
     -1.481  0.8040E-02  0.8057E-02  0.3266E-04  0.3271E-04  0.3266E-04  0.3271E-04  0.3266E-04  0.3271E-04  0.3988E-05  0.3995E-05  0.3988E-05  0.3995E-05  0.4649E-06  0.4633E-06  0.3988E-05  0.3995E-05  0.4649E-06  0.4633E-06
     -1.421  0.3314E-02  0.3320E-02  0.1834E-04  0.1835E-04  0.1834E-04  0.1835E-04  0.1834E-04  0.1835E-04  0.3017E-05  0.3015E-05  0.3017E-05  0.3015E-05  0.1547E-05  0.1541E-05  0.3017E-05  0.3015E-05  0.1547E-05  0.1541E-05
     -1.360  0.2677E-02  0.2674E-02  0.2870E-04  0.2864E-04  0.2870E-04  0.2864E-04  0.2870E-04  0.2864E-04  0.6343E-05  0.6328E-05  0.6343E-05  0.6328E-05  0.5105E-05  0.5088E-05  0.6343E-05  0.6328E-05  0.5105E-05  0.5088E-05
     -1.300  0.6070E-02  0.6056E-02  0.8256E-04  0.8234E-04  0.8256E-04  0.8234E-04  0.8256E-04  0.8234E-04  0.1930E-04  0.1925E-04  0.1930E-04  0.1925E-04  0.1642E-04  0.1637E-04  0.1930E-04  0.1925E-04  0.1642E-04  0.1637E-04
     -1.240  0.1732E-01  0.1728E-01  0.2425E-03  0.2419E-03  0.2425E-03  0.2419E-03  0.2425E-03  0.2419E-03  0.5701E-04  0.5688E-04  0.5701E-04  0.5688E-04  0.4878E-04  0.4864E-04  0.5701E-04  0.5688E-04  0.4878E-04  0.4864E-04
     -1.179  0.4106E-01  0.4100E-01  0.5768E-03  0.5759E-03  0.5768E-03  0.5759E-03  0.5768E-03  0.5759E-03  0.1357E-03  0.1355E-03  0.1357E-03  0.1355E-03  0.1162E-03  0.1159E-03  0.1357E-03  0.1355E-03  0.1162E-03  0.1159E-03
     -1.119  0.6161E-01  0.6161E-01  0.8659E-03  0.8656E-03  0.8659E-03  0.8656E-03  0.8659E-03  0.8656E-03  0.2045E-03  0.2045E-03  0.2045E-03  0.2045E-03  0.1743E-03  0.1742E-03  0.2045E-03  0.2045E-03  0.1743E-03  0.1742E-03
     -1.059  0.4914E-01  0.4921E-01  0.6913E-03  0.6921E-03  0.6913E-03  0.6921E-03  0.6913E-03  0.6921E-03  0.1646E-03  0.1648E-03  0.1646E-03  0.1648E-03  0.1390E-03  0.1391E-03  0.1646E-03  0.1648E-03  0.1390E-03  0.1391E-03
     -0.999  0.2332E-01  0.2337E-01  0.3309E-03  0.3316E-03  0.3309E-03  0.3316E-03  0.3309E-03  0.3316E-03  0.8438E-04  0.8454E-04  0.8438E-04  0.8454E-04  0.6572E-04  0.6583E-04  0.8438E-04  0.8454E-04  0.6572E-04  0.6583E-04
     -0.938  0.9370E-02  0.9389E-02  0.1428E-03  0.1430E-03  0.1428E-03  0.1430E-03  0.1428E-03  0.1430E-03  0.5520E-04  0.5519E-04  0.5520E-04  0.5519E-04  0.2565E-04  0.2568E-04  0.5520E-04  0.5519E-04  0.2565E-04  0.2568E-04
     -0.878  0.6765E-02  0.6761E-02  0.1312E-03  0.1310E-03  0.1312E-03  0.1310E-03  0.1312E-03  0.1310E-03  0.1010E-03  0.1008E-03  0.1010E-03  0.1008E-03  0.1633E-04  0.1631E-04  0.1010E-03  0.1008E-03  0.1633E-04  0.1631E-04
     -0.818  0.1366E-01  0.1363E-01  0.3023E-03  0.3016E-03  0.3023E-03  0.3016E-03  0.3023E-03  0.3016E-03  0.2859E-03  0.2853E-03  0.2859E-03  0.2853E-03  0.3003E-04  0.2995E-04  0.2859E-03  0.2853E-03  0.3003E-04  0.2995E-04
     -0.758  0.3313E-01  0.3308E-01  0.7477E-03  0.7462E-03  0.7477E-03  0.7462E-03  0.7477E-03  0.7462E-03  0.7245E-03  0.7232E-03  0.7245E-03  0.7232E-03  0.7178E-04  0.7159E-04  0.7245E-03  0.7232E-03  0.7178E-04  0.7159E-04
     -0.697  0.5621E-01  0.5619E-01  0.1272E-02  0.1271E-02  0.1272E-02  0.1271E-02  0.1272E-02  0.1271E-02  0.1238E-02  0.1238E-02  0.1238E-02  0.1238E-02  0.1231E-03  0.1229E-03  0.1238E-02  0.1238E-02  0.1231E-03  0.1229E-03
     -0.637  0.5212E-01  0.5218E-01  0.1181E-02  0.1182E-02  0.1181E-02  0.1182E-02  0.1181E-02  0.1182E-02  0.1159E-02  0.1161E-02  0.1159E-02  0.1161E-02  0.1160E-03  0.1160E-03  0.1159E-02  0.1161E-02  0.1160E-03  0.1160E-03
     -0.577  0.2786E-01  0.2792E-01  0.6359E-03  0.6370E-03  0.6359E-03  0.6370E-03  0.6359E-03  0.6370E-03  0.6616E-03  0.6627E-03  0.6616E-03  0.6627E-03  0.7128E-04  0.7130E-04  0.6616E-03  0.6627E-03  0.7128E-04  0.7130E-04
     -0.517  0.1319E-01  0.1321E-01  0.3163E-03  0.3166E-03  0.3163E-03  0.3166E-03  0.3163E-03  0.3166E-03  0.4470E-03  0.4469E-03  0.4470E-03  0.4469E-03  0.6533E-04  0.6517E-04  0.4470E-03  0.4469E-03  0.6533E-04  0.6517E-04
     -0.456  0.1288E-01  0.1287E-01  0.3464E-03  0.3458E-03  0.3464E-03  0.3458E-03  0.3464E-03  0.3458E-03  0.7224E-03  0.7208E-03  0.7224E-03  0.7208E-03  0.1506E-03  0.1500E-03  0.7224E-03  0.7208E-03  0.1506E-03  0.1500E-03
     -0.396  0.2431E-01  0.2426E-01  0.7000E-03  0.6984E-03  0.7000E-03  0.6984E-03  0.7000E-03  0.6984E-03  0.1426E-02  0.1424E-02  0.1426E-02  0.1424E-02  0.4511E-03  0.4492E-03  0.1426E-02  0.1424E-02  0.4511E-03  0.4492E-03
     -0.336  0.4246E-01  0.4240E-01  0.1305E-02  0.1302E-02  0.1305E-02  0.1302E-02  0.1305E-02  0.1302E-02  0.1892E-02  0.1891E-02  0.1892E-02  0.1891E-02  0.1228E-02  0.1223E-02  0.1892E-02  0.1891E-02  0.1228E-02  0.1223E-02
     -0.275  0.5956E-01  0.5953E-01  0.1948E-02  0.1947E-02  0.1948E-02  0.1947E-02  0.1948E-02  0.1947E-02  0.1632E-02  0.1633E-02  0.1632E-02  0.1633E-02  0.2392E-02  0.2387E-02  0.1632E-02  0.1633E-02  0.2392E-02  0.2387E-02
     -0.215  0.5817E-01  0.5823E-01  0.1961E-02  0.1962E-02  0.1961E-02  0.1962E-02  0.1961E-02  0.1962E-02  0.1148E-02  0.1150E-02  0.1148E-02  0.1150E-02  0.2640E-02  0.2641E-02  0.1148E-02  0.1150E-02  0.2640E-02  0.2641E-02
     -0.155  0.3574E-01  0.3582E-01  0.1228E-02  0.1230E-02  0.1228E-02  0.1230E-02  0.1228E-02  0.1230E-02  0.8260E-03  0.8260E-03  0.8260E-03  0.8260E-03  0.1639E-02  0.1642E-02  0.8260E-03  0.8260E-03  0.1639E-02  0.1642E-02
     -0.095  0.2261E-01  0.2262E-01  0.8189E-03  0.8188E-03  0.8189E-03  0.8188E-03  0.8189E-03  0.8188E-03  0.1198E-02  0.1195E-02  0.1198E-02  0.1195E-02  0.9086E-03  0.9089E-03  0.1198E-02  0.1195E-02  0.9086E-03  0.9089E-03
     -0.034  0.3374E-01  0.3366E-01  0.1296E-02  0.1293E-02  0.1296E-02  0.1293E-02  0.1296E-02  0.1293E-02  0.3129E-02  0.3118E-02  0.3129E-02  0.3118E-02  0.1096E-02  0.1093E-02  0.3129E-02  0.3118E-02  0.1096E-02  0.1093E-02
      0.026  0.7354E-01  0.7338E-01  0.2851E-02  0.2844E-02  0.2851E-02  0.2844E-02  0.2851E-02  0.2844E-02  0.7886E-02  0.7862E-02  0.7886E-02  0.7862E-02  0.2227E-02  0.2220E-02  0.7886E-02  0.7862E-02  0.2227E-02  0.2220E-02
      0.086  0.1179E+00  0.1178E+00  0.4506E-02  0.4502E-02  0.4506E-02  0.4502E-02  0.4506E-02  0.4502E-02  0.1483E-01  0.1480E-01  0.1483E-01  0.1480E-01  0.3407E-02  0.3402E-02  0.1483E-01  0.1480E-01  0.3407E-02  0.3402E-02
      0.146  0.1170E+00  0.1170E+00  0.4278E-02  0.4281E-02  0.4278E-02  0.4281E-02  0.4278E-02  0.4281E-02  0.2044E-01  0.2041E-01  0.2044E-01  0.2041E-01  0.3046E-02  0.3047E-02  0.2044E-01  0.2041E-01  0.3046E-02  0.3047E-02
      0.207  0.8443E-01  0.8454E-01  0.2816E-02  0.2821E-02  0.2816E-02  0.2821E-02  0.2816E-02  0.2821E-02  0.2360E-01  0.2357E-01  0.2360E-01  0.2357E-01  0.1853E-02  0.1854E-02  0.2360E-01  0.2357E-01  0.1853E-02  0.1854E-02
      0.267  0.5705E-01  0.5709E-01  0.1595E-02  0.1598E-02  0.1595E-02  0.1598E-02  0.1595E-02  0.1598E-02  0.2817E-01  0.2811E-01  0.2817E-01  0.2811E-01  0.1046E-02  0.1045E-02  0.2817E-01  0.2811E-01  0.1046E-02  0.1045E-02
      0.327  0.5168E-01  0.5164E-01  0.1180E-02  0.1180E-02  0.1180E-02  0.1180E-02  0.1180E-02  0.1180E-02  0.3927E-01  0.3918E-01  0.3927E-01  0.3918E-01  0.1152E-02  0.1142E-02  0.3927E-01  0.3918E-01  0.1152E-02  0.1142E-02
      0.387  0.5572E-01  0.5570E-01  0.1205E-02  0.1204E-02  0.1205E-02  0.1204E-02  0.1205E-02  0.1204E-02  0.5035E-01  0.5030E-01  0.5035E-01  0.5030E-01  0.2887E-02  0.2849E-02  0.5035E-01  0.5030E-01  0.2887E-02  0.2849E-02
      0.448  0.5361E-01  0.5360E-01  0.1370E-02  0.1367E-02  0.1370E-02  0.1367E-02  0.1370E-02  0.1367E-02  0.4804E-01  0.4808E-01  0.4804E-01  0.4808E-01  0.8598E-02  0.8484E-02  0.4804E-01  0.4808E-01  0.8598E-02  0.8484E-02
      0.508  0.6168E-01  0.6152E-01  0.2302E-02  0.2292E-02  0.2302E-02  0.2292E-02  0.2302E-02  0.2292E-02  0.4172E-01  0.4170E-01  0.4172E-01  0.4170E-01  0.2449E-01  0.2419E-01  0.4172E-01  0.4170E-01  0.2449E-01  0.2419E-01
      0.568  0.9897E-01  0.9866E-01  0.4333E-02  0.4319E-02  0.4333E-02  0.4319E-02  0.4333E-02  0.4319E-02  0.5726E-01  0.5706E-01  0.5726E-01  0.5706E-01  0.5593E-01  0.5542E-01  0.5726E-01  0.5706E-01  0.5593E-01  0.5542E-01