   4   4   1   0
  0.1801402E+02  0.4161248E-09  0.4161248E-09  0.4161248E-09  0.5000000E-15
  1.000000000000000E-004
  CAR 
 unknown system                          
     20.41477272     -1.47132972  301      8.48813909      1.00000000
     -1.471  0.0000E+00  0.0000E+00  0.0000E+00  0.0000E+00
     -1.398  0.0000E+00  0.0000E+00  0.0000E+00  0.0000E+00
     -1.325  0.0000E+00  0.0000E+00  0.0000E+00  0.0000E+00
     -1.252  0.0000E+00  0.0000E+00  0.0000E+00  0.0000E+00
     -1.180  0.0000E+00  0.0000E+00  0.0000E+00  0.0000E+00
     -1.107  0.0000E+00  0.0000E+00  0.0000E+00  0.0000E+00
     -1.034  0.0000E+00  0.0000E+00  0.0000E+00  0.0000E+00
     -0.961  0.0000E+00  0.0000E+00  0.0000E+00  0.0000E+00
     -0.888  0.1361E-03  0.1359E-03  0.9930E-05  0.9916E-05
     -0.815  0.4489E-03  0.4483E-03  0.4268E-04  0.4262E-04
     -0.742  0.1922E-02  0.1919E-02  0.1829E-03  0.1826E-03
     -0.669  0.8106E-02  0.8094E-02  0.7743E-03  0.7732E-03
     -0.596  0.3210E-01  0.3205E-01  0.3116E-02  0.3112E-02
     -0.523  0.1011E+00  0.1010E+00  0.1049E-01  0.1048E-01
     -0.450  0.1759E+00  0.1758E+00  0.2332E-01  0.2331E-01
     -0.377  0.1270E+00  0.1271E+00  0.3258E-01  0.3258E-01
     -0.304  0.4581E-01  0.4587E-01  0.3592E-01  0.3592E-01
     -0.231  0.1317E-01  0.1318E-01  0.3688E-01  0.3688E-01
     -0.158  0.8213E-02  0.8209E-02  0.3748E-01  0.3748E-01
     -0.085  0.2330E-01  0.2327E-01  0.3918E-01  0.3918E-01
     -0.012  0.9013E-01  0.9001E-01  0.4577E-01  0.4576E-01
      0.061  0.2892E+00  0.2890E+00  0.6687E-01  0.6684E-01
      0.134  0.5236E+00  0.5235E+00  0.1051E+00  0.1050E+00
      0.207  0.3954E+00  0.3956E+00  0.1339E+00  0.1339E+00
      0.280  0.1460E+00  0.1461E+00  0.1446E+00  0.1446E+00
      0.353  0.4239E-01  0.4244E-01  0.1477E+00  0.1477E+00
      0.425  0.2627E-01  0.2626E-01  0.1496E+00  0.1496E+00
      0.498  0.7139E-01  0.7130E-01  0.1548E+00  0.1548E+00
      0.571  0.2371E+00  0.2369E+00  0.1721E+00  0.1721E+00
      0.644  0.4971E+00  0.4970E+00  0.2084E+00  0.2084E+00
      0.717  0.4487E+00  0.4489E+00  0.2411E+00  0.2411E+00
      0.790  0.1883E+00  0.1885E+00  0.2549E+00  0.2549E+00
      0.863  0.7041E-01  0.7045E-01  0.2600E+00  0.2600E+00
      0.936  0.8657E-01  0.8650E-01  0.2663E+00  0.2663E+00
      1.009  0.2066E+00  0.2064E+00  0.2814E+00  0.2814E+00
      1.082  0.3621E+00  0.3619E+00  0.3079E+00  0.3078E+00
      1.155  0.5417E+00  0.5416E+00  0.3474E+00  0.3473E+00
      1.228  0.5125E+00  0.5128E+00  0.3848E+00  0.3848E+00
      1.301  0.2426E+00  0.2429E+00  0.4025E+00  0.4025E+00
      1.374  0.1256E+00  0.1256E+00  0.4116E+00  0.4116E+00
      1.447  0.2536E+00  0.2533E+00  0.4302E+00  0.4301E+00
      1.520  0.7471E+00  0.7464E+00  0.4847E+00  0.4846E+00
      1.593  0.1350E+01  0.1349E+01  0.5832E+00  0.5831E+00
      1.666  0.1308E+01  0.1308E+01  0.6786E+00  0.6785E+00
      1.739  0.9176E+00  0.9179E+00  0.7456E+00  0.7455E+00
      1.812  0.7664E+00  0.7663E+00  0.8015E+00  0.8014E+00
      1.885  0.1003E+01  0.1003E+01  0.8747E+00  0.8746E+00
      1.957  0.1081E+01  0.1081E+01  0.9535E+00  0.9535E+00
      2.030  0.8668E+00  0.8667E+00  0.1017E+01  0.1017E+01
      2.103  0.1268E+01  0.1267E+01  0.1109E+01  0.1109E+01
      2.176  0.2370E+01  0.2369E+01  0.1282E+01  0.1282E+01
      2.249  0.3187E+01  0.3187E+01  0.1515E+01  0.1515E+01
      2.322  0.3165E+01  0.3165E+01  0.1746E+01  0.1746E+01
      2.395  0.3115E+01  0.3115E+01  0.1973E+01  0.1973E+01
      2.468  0.3695E+01  0.3694E+01  0.2243E+01  0.2242E+01
      2.541  0.3793E+01  0.3793E+01  0.2520E+01  0.2519E+01
      2.614  0.3998E+01  0.3998E+01  0.2811E+01  0.2811E+01
      2.687  0.3876E+01  0.3877E+01  0.3095E+01  0.3094E+01
      2.760  0.3457E+01  0.3457E+01  0.3347E+01  0.3347E+01
      2.833  0.3308E+01  0.3308E+01  0.3588E+01  0.3588E+01
      2.906  0.3430E+01  0.3429E+01  0.3839E+01  0.3838E+01
      2.979  0.4464E+01  0.4462E+01  0.4165E+01  0.4164E+01
      3.052  0.4044E+01  0.4046E+01  0.4460E+01  0.4460E+01
      3.125  0.2771E+01  0.2772E+01  0.4662E+01  0.4662E+01
      3.198  0.2318E+01  0.2319E+01  0.4831E+01  0.4831E+01
      3.271  0.2296E+01  0.2296E+01  0.4999E+01  0.4999E+01
      3.344  0.2992E+01  0.2990E+01  0.5217E+01  0.5217E+01
      3.417  0.3652E+01  0.3652E+01  0.5484E+01  0.5484E+01
      3.490  0.3790E+01  0.3790E+01  0.5761E+01  0.5760E+01
      3.562  0.3630E+01  0.3630E+01  0.6026E+01  0.6025E+01
      3.635  0.3592E+01  0.3592E+01  0.6288E+01  0.6287E+01
      3.708  0.3270E+01  0.3270E+01  0.6527E+01  0.6526E+01
      3.781  0.4047E+01  0.4045E+01  0.6822E+01  0.6822E+01
      3.854  0.5491E+01  0.5489E+01  0.7223E+01  0.7222E+01
      3.927  0.5823E+01  0.5824E+01  0.7648E+01  0.7647E+01
      4.000  0.4113E+01  0.4115E+01  0.7948E+01  0.7948E+01
      4.073  0.3099E+01  0.3099E+01  0.8174E+01  0.8174E+01
      4.146  0.4329E+01  0.4326E+01  0.8490E+01  0.8490E+01
      4.219  0.6544E+01  0.6542E+01  0.8968E+01  0.8967E+01
      4.292  0.6887E+01  0.6888E+01  0.9471E+01  0.9470E+01
      4.365  0.5649E+01  0.5650E+01  0.9883E+01  0.9883E+01
      4.438  0.5291E+01  0.5291E+01  0.1027E+02  0.1027E+02
      4.511  0.6198E+01  0.6197E+01  0.1072E+02  0.1072E+02
      4.584  0.6323E+01  0.6324E+01  0.1118E+02  0.1118E+02
      4.657  0.4905E+01  0.4907E+01  0.1154E+02  0.1154E+02
      4.730  0.3726E+01  0.3727E+01  0.1181E+02  0.1181E+02
      4.803  0.3701E+01  0.3701E+01  0.1208E+02  0.1208E+02
      4.876  0.4261E+01  0.4260E+01  0.1240E+02  0.1239E+02
      4.949  0.4509E+01  0.4509E+01  0.1272E+02  0.1272E+02
      5.022  0.4143E+01  0.4143E+01  0.1303E+02  0.1303E+02
      5.095  0.3683E+01  0.3683E+01  0.1330E+02  0.1330E+02
      5.167  0.3037E+01  0.3037E+01  0.1352E+02  0.1352E+02
      5.240  0.3479E+01  0.3477E+01  0.1377E+02  0.1377E+02
      5.313  0.5290E+01  0.5288E+01  0.1416E+02  0.1416E+02
      5.386  0.5756E+01  0.5756E+01  0.1458E+02  0.1458E+02
      5.459  0.5202E+01  0.5203E+01  0.1496E+02  0.1496E+02
      5.532  0.4440E+01  0.4441E+01  0.1528E+02  0.1528E+02
      5.605  0.3457E+01  0.3458E+01  0.1553E+02  0.1553E+02
      5.678  0.2864E+01  0.2864E+01  0.1574E+02  0.1574E+02
      5.751  0.2984E+01  0.2984E+01  0.1596E+02  0.1596E+02
      5.824  0.3416E+01  0.3415E+01  0.1621E+02  0.1621E+02
      5.897  0.4130E+01  0.4129E+01  0.1651E+02  0.1651E+02
      5.970  0.4134E+01  0.4134E+01  0.1681E+02  0.1681E+02
      6.043  0.4890E+01  0.4888E+01  0.1717E+02  0.1717E+02
      6.116  0.4939E+01  0.4941E+01  0.1753E+02  0.1753E+02
      6.189  0.3210E+01  0.3213E+01  0.1777E+02  0.1777E+02
      6.262  0.2362E+01  0.2361E+01  0.1794E+02  0.1794E+02
      6.335  0.3368E+01  0.3365E+01  0.1818E+02  0.1818E+02
      6.408  0.5667E+01  0.5664E+01  0.1860E+02  0.1860E+02
      6.481  0.6838E+01  0.6838E+01  0.1910E+02  0.1910E+02
      6.554  0.6149E+01  0.6150E+01  0.1955E+02  0.1955E+02
      6.627  0.5280E+01  0.5282E+01  0.1993E+02  0.1993E+02
      6.699  0.3878E+01  0.3880E+01  0.2021E+02  0.2021E+02
      6.772  0.3293E+01  0.3293E+01  0.2046E+02  0.2045E+02
      6.845  0.3251E+01  0.3252E+01  0.2069E+02  0.2069E+02
      6.918  0.2263E+01  0.2265E+01  0.2086E+02  0.2086E+02
      6.991  0.1276E+01  0.1277E+01  0.2095E+02  0.2095E+02
      7.064  0.8058E+00  0.8060E+00  0.2101E+02  0.2101E+02
      7.137  0.1041E+01  0.1040E+01  0.2109E+02  0.2109E+02
      7.210  0.1621E+01  0.1620E+01  0.2121E+02  0.2121E+02
      7.283  0.1264E+01  0.1265E+01  0.2130E+02  0.2130E+02
      7.356  0.7026E+00  0.7030E+00  0.2135E+02  0.2135E+02
      7.429  0.6865E+00  0.6864E+00  0.2140E+02  0.2140E+02
      7.502  0.6907E+00  0.6908E+00  0.2145E+02  0.2145E+02
      7.575  0.6700E+00  0.6700E+00  0.2150E+02  0.2150E+02
      7.648  0.5035E+00  0.5039E+00  0.2154E+02  0.2154E+02
      7.721  0.2028E+00  0.2031E+00  0.2155E+02  0.2155E+02
      7.794  0.5579E-01  0.5589E-01  0.2155E+02  0.2155E+02
      7.867  0.1344E-01  0.1347E-01  0.2156E+02  0.2156E+02
      7.940  0.5306E-02  0.5307E-02  0.2156E+02  0.2156E+02
      8.013  0.9250E-02  0.9231E-02  0.2156E+02  0.2156E+02
      8.086  0.3949E-01  0.3941E-01  0.2156E+02  0.2156E+02
      8.159  0.1619E+00  0.1616E+00  0.2157E+02  0.2157E+02
      8.232  0.5802E+00  0.5793E+00  0.2161E+02  0.2161E+02
      8.304  0.1423E+01  0.1422E+01  0.2172E+02  0.2172E+02
      8.377  0.1916E+01  0.1916E+01  0.2186E+02  0.2186E+02
      8.450  0.1458E+01  0.1459E+01  0.2196E+02  0.2196E+02
      8.523  0.9033E+00  0.9037E+00  0.2203E+02  0.2203E+02
      8.596  0.7144E+00  0.7147E+00  0.2208E+02  0.2208E+02
      8.669  0.5278E+00  0.5280E+00  0.2212E+02  0.2212E+02
      8.742  0.7101E+00  0.7095E+00  0.2217E+02  0.2217E+02
      8.815  0.1080E+01  0.1079E+01  0.2225E+02  0.2225E+02
      8.888  0.7655E+00  0.7663E+00  0.2231E+02  0.2231E+02
      8.961  0.2714E+00  0.2719E+00  0.2233E+02  0.2233E+02
      9.034  0.7115E-01  0.7129E-01  0.2233E+02  0.2233E+02
      9.107  0.1755E-01  0.1759E-01  0.2233E+02  0.2233E+02
      9.180  0.5705E-02  0.5710E-02  0.2233E+02  0.2233E+02
      9.253  0.7369E-02  0.7355E-02  0.2233E+02  0.2233E+02
      9.326  0.3174E-01  0.3168E-01  0.2234E+02  0.2234E+02
      9.399  0.1295E+00  0.1293E+00  0.2235E+02  0.2235E+02
      9.472  0.4519E+00  0.4513E+00  0.2238E+02  0.2238E+02
      9.545  0.1003E+01  0.1003E+01  0.2245E+02  0.2245E+02
      9.618  0.1058E+01  0.1058E+01  0.2253E+02  0.2253E+02
      9.691  0.8303E+00  0.8303E+00  0.2259E+02  0.2259E+02
      9.764  0.9910E+00  0.9907E+00  0.2266E+02  0.2266E+02
      9.836  0.9704E+00  0.9707E+00  0.2273E+02  0.2273E+02
      9.909  0.6663E+00  0.6666E+00  0.2278E+02  0.2278E+02
      9.982  0.7464E+00  0.7460E+00  0.2284E+02  0.2284E+02
     10.055  0.1091E+01  0.1090E+01  0.2292E+02  0.2292E+02
     10.128  0.7802E+00  0.7809E+00  0.2297E+02  0.2297E+02
     10.201  0.2787E+00  0.2791E+00  0.2299E+02  0.2299E+02
     10.274  0.7450E-01  0.7462E-01  0.2300E+02  0.2300E+02
     10.347  0.2312E-01  0.2314E-01  0.2300E+02  0.2300E+02
     10.420  0.2790E-01  0.2786E-01  0.2300E+02  0.2300E+02
     10.493  0.9824E-01  0.9805E-01  0.2301E+02  0.2301E+02
     10.566  0.3586E+00  0.3580E+00  0.2304E+02  0.2304E+02
     10.639  0.8855E+00  0.8848E+00  0.2310E+02  0.2310E+02
     10.712  0.1003E+01  0.1003E+01  0.2317E+02  0.2317E+02
     10.785  0.4930E+00  0.4937E+00  0.2321E+02  0.2321E+02
     10.858  0.1794E+00  0.1796E+00  0.2322E+02  0.2322E+02
     10.931  0.1870E+00  0.1869E+00  0.2324E+02  0.2324E+02
     11.004  0.5490E+00  0.5483E+00  0.2328E+02  0.2328E+02
     11.077  0.1302E+01  0.1302E+01  0.2337E+02  0.2337E+02
     11.150  0.1755E+01  0.1755E+01  0.2350E+02  0.2350E+02
     11.223  0.1412E+01  0.1413E+01  0.2360E+02  0.2360E+02
     11.296  0.6378E+00  0.6384E+00  0.2365E+02  0.2365E+02
     11.369  0.1921E+00  0.1923E+00  0.2366E+02  0.2366E+02
     11.441  0.7264E-01  0.7266E-01  0.2367E+02  0.2367E+02
     11.514  0.1143E+00  0.1142E+00  0.2368E+02  0.2368E+02
     11.587  0.3259E+00  0.3256E+00  0.2370E+02  0.2370E+02
     11.660  0.5608E+00  0.5607E+00  0.2374E+02  0.2374E+02
     11.733  0.4898E+00  0.4899E+00  0.2378E+02  0.2378E+02
     11.806  0.5713E+00  0.5709E+00  0.2382E+02  0.2382E+02
     11.879  0.1101E+01  0.1100E+01  0.2390E+02  0.2390E+02
     11.952  0.1431E+01  0.1431E+01  0.2400E+02  0.2400E+02
     12.025  0.1497E+01  0.1496E+01  0.2411E+02  0.2411E+02
     12.098  0.1368E+01  0.1368E+01  0.2421E+02  0.2421E+02
     12.171  0.1260E+01  0.1261E+01  0.2430E+02  0.2430E+02
     12.244  0.1142E+01  0.1142E+01  0.2439E+02  0.2439E+02
     12.317  0.5542E+00  0.5546E+00  0.2443E+02  0.2443E+02
     12.390  0.1654E+00  0.1656E+00  0.2444E+02  0.2444E+02
     12.463  0.3974E-01  0.3978E-01  0.2444E+02  0.2444E+02
     12.536  0.9757E-02  0.9766E-02  0.2444E+02  0.2444E+02
     12.609  0.1705E-02  0.1702E-02  0.2444E+02  0.2444E+02
     12.682  0.7404E-02  0.7392E-02  0.2445E+02  0.2445E+02
     12.755  0.3096E-01  0.3091E-01  0.2445E+02  0.2445E+02
     12.828  0.1202E+00  0.1200E+00  0.2446E+02  0.2446E+02
     12.901  0.3560E+00  0.3557E+00  0.2448E+02  0.2448E+02
     12.973  0.5595E+00  0.5595E+00  0.2452E+02  0.2452E+02
     13.046  0.4255E+00  0.4257E+00  0.2455E+02  0.2455E+02
     13.119  0.2909E+00  0.2910E+00  0.2458E+02  0.2458E+02
     13.192  0.2015E+00  0.2016E+00  0.2459E+02  0.2459E+02
     13.265  0.1991E+00  0.1989E+00  0.2460E+02  0.2460E+02
     13.338  0.5042E+00  0.5036E+00  0.2464E+02  0.2464E+02
     13.411  0.1140E+01  0.1139E+01  0.2472E+02  0.2472E+02
     13.484  0.1452E+01  0.1452E+01  0.2483E+02  0.2483E+02
     13.557  0.1428E+01  0.1428E+01  0.2493E+02  0.2493E+02
     13.630  0.1001E+01  0.1002E+01  0.2501E+02  0.2501E+02
     13.703  0.5623E+00  0.5626E+00  0.2505E+02  0.2505E+02
     13.776  0.7663E+00  0.7658E+00  0.2510E+02  0.2510E+02
     13.849  0.1391E+01  0.1391E+01  0.2521E+02  0.2521E+02
     13.922  0.1678E+01  0.1679E+01  0.2533E+02  0.2533E+02
     13.995  0.1534E+01  0.1534E+01  0.2544E+02  0.2544E+02
     14.068  0.1251E+01  0.1251E+01  0.2553E+02  0.2553E+02
     14.141  0.5967E+00  0.5971E+00  0.2558E+02  0.2558E+02
     14.214  0.1830E+00  0.1831E+00  0.2559E+02  0.2559E+02
     14.287  0.7006E-01  0.7005E-01  0.2559E+02  0.2559E+02
     14.360  0.1282E+00  0.1281E+00  0.2560E+02  0.2560E+02
     14.433  0.4161E+00  0.4157E+00  0.2563E+02  0.2563E+02
     14.506  0.1015E+01  0.1014E+01  0.2571E+02  0.2571E+02
     14.578  0.1575E+01  0.1575E+01  0.2582E+02  0.2582E+02
     14.651  0.1612E+01  0.1612E+01  0.2594E+02  0.2594E+02
     14.724  0.9145E+00  0.9154E+00  0.2601E+02  0.2601E+02
     14.797  0.3019E+00  0.3023E+00  0.2603E+02  0.2603E+02
     14.870  0.7923E-01  0.7935E-01  0.2604E+02  0.2604E+02
     14.943  0.2621E-01  0.2611E-01  0.2604E+02  0.2604E+02
     15.016  0.3849E-01  0.3855E-01  0.2604E+02  0.2604E+02
     15.089  0.1335E+00  0.1333E+00  0.2605E+02  0.2605E+02
     15.162  0.3805E+00  0.3801E+00  0.2608E+02  0.2608E+02
     15.235  0.5594E+00  0.5594E+00  0.2612E+02  0.2612E+02
     15.308  0.4282E+00  0.4284E+00  0.2615E+02  0.2615E+02
     15.381  0.4466E+00  0.4465E+00  0.2618E+02  0.2618E+02
     15.454  0.5574E+00  0.5574E+00  0.2622E+02  0.2622E+02
     15.527  0.3443E+00  0.3447E+00  0.2625E+02  0.2625E+02
     15.600  0.1167E+00  0.1168E+00  0.2626E+02  0.2626E+02
     15.673  0.4795E-01  0.4797E-01  0.2626E+02  0.2626E+02
     15.746  0.8745E-01  0.8734E-01  0.2627E+02  0.2627E+02
     15.819  0.3227E+00  0.3223E+00  0.2629E+02  0.2629E+02
     15.892  0.1061E+01  0.1060E+01  0.2637E+02  0.2637E+02
     15.965  0.2104E+01  0.2104E+01  0.2652E+02  0.2652E+02
     16.038  0.2070E+01  0.2071E+01  0.2667E+02  0.2667E+02
     16.111  0.1588E+01  0.1588E+01  0.2679E+02  0.2679E+02
     16.183  0.1181E+01  0.1182E+01  0.2687E+02  0.2687E+02
     16.256  0.5264E+00  0.5270E+00  0.2691E+02  0.2691E+02
     16.329  0.1981E+00  0.1983E+00  0.2693E+02  0.2693E+02
     16.402  0.2197E+00  0.2194E+00  0.2694E+02  0.2694E+02
     16.475  0.4601E+00  0.4596E+00  0.2698E+02  0.2698E+02
     16.548  0.5063E+00  0.5066E+00  0.2701E+02  0.2701E+02
     16.621  0.2810E+00  0.2813E+00  0.2703E+02  0.2703E+02
     16.694  0.2527E+00  0.2526E+00  0.2705E+02  0.2705E+02
     16.767  0.6157E+00  0.6149E+00  0.2710E+02  0.2710E+02
     16.840  0.1149E+01  0.1148E+01  0.2718E+02  0.2718E+02
     16.913  0.1155E+01  0.1155E+01  0.2727E+02  0.2727E+02
     16.986  0.1182E+01  0.1181E+01  0.2735E+02  0.2735E+02
     17.059  0.1083E+01  0.1084E+01  0.2743E+02  0.2743E+02
     17.132  0.5287E+00  0.5298E+00  0.2747E+02  0.2747E+02
     17.205  0.2584E+00  0.2586E+00  0.2749E+02  0.2749E+02
     17.278  0.3734E+00  0.3731E+00  0.2752E+02  0.2752E+02
     17.351  0.5450E+00  0.5449E+00  0.2756E+02  0.2756E+02
     17.424  0.3656E+00  0.3656E+00  0.2758E+02  0.2758E+02
     17.497  0.1956E+00  0.1942E+00  0.2760E+02  0.2760E+02
     17.570  0.2994E+00  0.2958E+00  0.2762E+02  0.2762E+02
     17.643  0.5956E+00  0.5978E+00  0.2766E+02  0.2766E+02
     17.715  0.7487E+00  0.7704E+00  0.2772E+02  0.2772E+02
     17.788  0.1005E+01  0.1033E+01  0.2779E+02  0.2779E+02
     17.861  0.1122E+01  0.1112E+01  0.2787E+02  0.2788E+02
     17.934  0.6757E+00  0.6524E+00  0.2792E+02  0.2792E+02
     18.007  0.3472E+00  0.3378E+00  0.2795E+02  0.2795E+02
     18.080  0.1530E+00  0.1506E+00  0.2796E+02  0.2796E+02
     18.153  0.4677E-01  0.4621E-01  0.2796E+02  0.2796E+02
     18.226  0.9444E-02  0.9459E-02  0.2796E+02  0.2796E+02
     18.299  0.2247E-02  0.2251E-02  0.2796E+02  0.2796E+02
     18.372  0.0000E+00  0.0000E+00  0.2796E+02  0.2796E+02
     18.445  0.0000E+00  0.0000E+00  0.2796E+02  0.2796E+02
     18.518  0.0000E+00  0.0000E+00  0.2796E+02  0.2796E+02
     18.591  0.0000E+00  0.0000E+00  0.2796E+02  0.2796E+02
     18.664  0.0000E+00  0.0000E+00  0.2796E+02  0.2796E+02
     18.737  0.0000E+00  0.0000E+00  0.2796E+02  0.2796E+02
     18.810  0.0000E+00  0.0000E+00  0.2796E+02  0.2796E+02
     18.883  0.0000E+00  0.0000E+00  0.2796E+02  0.2796E+02
     18.956  0.8623E-04  0.4711E-04  0.2796E+02  0.2796E+02
     19.029  0.2845E-03  0.1555E-03  0.2796E+02  0.2796E+02
     19.102  0.1220E-02  0.6679E-03  0.2796E+02  0.2796E+02
     19.175  0.5183E-02  0.2853E-02  0.2796E+02  0.2796E+02
     19.248  0.2114E-01  0.1192E-01  0.2796E+02  0.2796E+02
     19.320  0.7372E-01  0.4543E-01  0.2797E+02  0.2797E+02
     19.393  0.1616E+00  0.1270E+00  0.2798E+02  0.2798E+02
     19.466  0.1543E+00  0.1759E+00  0.2799E+02  0.2799E+02
     19.539  0.6588E-01  0.1011E+00  0.2800E+02  0.2800E+02
     19.612  0.1840E-01  0.3210E-01  0.2800E+02  0.2800E+02
     19.685  0.4481E-02  0.8106E-02  0.2800E+02  0.2800E+02
     19.758  0.1053E-02  0.1922E-02  0.2800E+02  0.2800E+02
     19.831  0.0000E+00  0.0000E+00  0.2800E+02  0.2800E+02
     19.904  0.0000E+00  0.0000E+00  0.2800E+02  0.2800E+02
     19.977  0.0000E+00  0.0000E+00  0.2800E+02  0.2800E+02
     20.050  0.0000E+00  0.0000E+00  0.2800E+02  0.2800E+02
     20.123  0.0000E+00  0.0000E+00  0.2800E+02  0.2800E+02
     20.196  0.0000E+00  0.0000E+00  0.2800E+02  0.2800E+02
     20.269  0.0000E+00  0.0000E+00  0.2800E+02  0.2800E+02
     20.342  0.0000E+00  0.0000E+00  0.2800E+02  0.2800E+02
     20.415  0.0000E+00  0.0000E+00  0.2800E+02  0.2800E+02
     20.41477272     -1.47132972  301      8.48813909      1.00000000
     -1.471  0.0000E+00  0.0000E+00  0.0000E+00  0.0000E+00  0.0000E+00  0.0000E+00  0.0000E+00  0.0000E+00  0.0000E+00  0.0000E+00  0.0000E+00  0.0000E+00  0.0000E+00  0.0000E+00  0.0000E+00  0.0000E+00  0.0000E+00  0.0000E+00
     -1.398  0.0000E+00  0.0000E+00  0.0000E+00  0.0000E+00  0.0000E+00  0.0000E+00  0.0000E+00  0.0000E+00  0.0000E+00  0.0000E+00  0.0000E+00  0.0000E+00  0.0000E+00  0.0000E+00  0.0000E+00  0.0000E+00  0.0000E+00  0.0000E+00
     -1.325  0.0000E+00  0.0000E+00  0.0000E+00  0.0000E+00  0.0000E+00  0.0000E+00  0.0000E+00  0.0000E+00  0.0000E+00  0.0000E+00  0.0000E+00  0.0000E+00  0.0000E+00  0.0000E+00  0.0000E+00  0.0000E+00  0.0000E+00  0.0000E+00
     -1.252  0.0000E+00  0.0000E+00  0.0000E+00  0.0000E+00  0.0000E+00  0.0000E+00  0.0000E+00  0.0000E+00  0.0000E+00  0.0000E+00  0.0000E+00  0.0000E+00  0.0000E+00  0.0000E+00  0.0000E+00  0.0000E+00  0.0000E+00  0.0000E+00
     -1.180  0.0000E+00  0.0000E+00  0.0000E+00  0.0000E+00  0.0000E+00  0.0000E+00  0.0000E+00  0.0000E+00  0.0000E+00  0.0000E+00  0.0000E+00  0.0000E+00  0.0000E+00  0.0000E+00  0.0000E+00  0.0000E+00  0.0000E+00  0.0000E+00
     -1.107  0.0000E+00  0.0000E+00  0.0000E+00  0.0000E+00  0.0000E+00  0.0000E+00  0.0000E+00  0.0000E+00  0.0000E+00  0.0000E+00  0.0000E+00  0.0000E+00  0.0000E+00  0.0000E+00  0.0000E+00  0.0000E+00  0.0000E+00  0.0000E+00
     -1.034  0.0000E+00  0.0000E+00  0.0000E+00  0.0000E+00  0.0000E+00  0.0000E+00  0.0000E+00  0.0000E+00  0.0000E+00  0.0000E+00  0.0000E+00  0.0000E+00  0.0000E+00  0.0000E+00  0.0000E+00  0.0000E+00  0.0000E+00  0.0000E+00
     -0.961  0.0000E+00  0.0000E+00  0.0000E+00  0.0000E+00  0.0000E+00  0.0000E+00  0.0000E+00  0.0000E+00  0.0000E+00  0.0000E+00  0.0000E+00  0.0000E+00  0.0000E+00  0.0000E+00  0.0000E+00  0.0000E+00  0.0000E+00  0.0000E+00
     -0.888  0.1931E-04  0.1928E-04  0.9627E-07  0.9613E-07  0.9627E-07  0.9613E-07  0.9627E-07  0.9613E-07  0.8330E-08  0.8319E-08  0.8330E-08  0.8319E-08  0.3685E-23  0.7184E-23  0.8330E-08  0.8319E-08  0.3685E-23  0.7184E-23
     -0.815  0.6368E-04  0.6359E-04  0.3175E-06  0.3171E-06  0.3175E-06  0.3171E-06  0.3175E-06  0.3171E-06  0.2747E-07  0.2744E-07  0.2747E-07  0.2744E-07  0.1215E-22  0.2369E-22  0.2747E-07  0.2744E-07  0.1215E-22  0.2369E-22
     -0.742  0.2727E-03  0.2723E-03  0.1360E-05  0.1358E-05  0.1360E-05  0.1358E-05  0.1360E-05  0.1358E-05  0.1176E-06  0.1175E-06  0.1176E-06  0.1175E-06  0.5204E-22  0.1015E-21  0.1176E-06  0.1175E-06  0.5204E-22  0.1015E-21
     -0.669  0.1150E-02  0.1148E-02  0.5733E-05  0.5725E-05  0.5733E-05  0.5725E-05  0.5733E-05  0.5725E-05  0.4961E-06  0.4955E-06  0.4961E-06  0.4955E-06  0.2195E-21  0.4278E-21  0.4961E-06  0.4955E-06  0.2195E-21  0.4278E-21
     -0.596  0.4553E-02  0.4547E-02  0.2270E-04  0.2267E-04  0.2270E-04  0.2267E-04  0.2270E-04  0.2267E-04  0.1964E-05  0.1962E-05  0.1964E-05  0.1962E-05  0.8689E-21  0.1694E-20  0.1964E-05  0.1962E-05  0.8689E-21  0.1694E-20
     -0.523  0.1434E-01  0.1433E-01  0.7150E-04  0.7143E-04  0.7150E-04  0.7143E-04  0.7150E-04  0.7143E-04  0.6186E-05  0.6182E-05  0.6186E-05  0.6182E-05  0.2737E-20  0.5338E-20  0.6186E-05  0.6182E-05  0.2737E-20  0.5338E-20
     -0.450  0.2495E-01  0.2494E-01  0.1244E-03  0.1244E-03  0.1244E-03  0.1244E-03  0.1244E-03  0.1244E-03  0.1076E-04  0.1076E-04  0.1076E-04  0.1076E-04  0.4761E-20  0.9294E-20  0.1076E-04  0.1076E-04  0.4761E-20  0.9294E-20
     -0.377  0.1801E-01  0.1802E-01  0.8981E-04  0.8987E-04  0.8981E-04  0.8987E-04  0.8981E-04  0.8987E-04  0.7771E-05  0.7777E-05  0.7771E-05  0.7777E-05  0.3437E-20  0.6716E-20  0.7771E-05  0.7777E-05  0.3437E-20  0.6716E-20
     -0.304  0.6496E-02  0.6504E-02  0.3307E-04  0.3311E-04  0.3307E-04  0.3311E-04  0.3307E-04  0.3311E-04  0.2943E-05  0.2946E-05  0.2943E-05  0.2946E-05  0.1411E-06  0.1408E-06  0.2943E-05  0.2946E-05  0.1411E-06  0.1408E-06
     -0.231  0.1859E-02  0.1861E-02  0.1152E-04  0.1153E-04  0.1152E-04  0.1153E-04  0.1152E-04  0.1153E-04  0.1264E-05  0.1265E-05  0.1264E-05  0.1265E-05  0.4653E-06  0.4646E-06  0.1264E-05  0.1265E-05  0.4653E-06  0.4646E-06
     -0.158  0.1128E-02  0.1128E-02  0.1525E-04  0.1524E-04  0.1525E-04  0.1524E-04  0.1525E-04  0.1524E-04  0.2466E-05  0.2463E-05  0.2466E-05  0.2463E-05  0.1993E-05  0.1990E-05  0.2466E-05  0.2463E-05  0.1993E-05  0.1990E-05
     -0.085  0.3150E-02  0.3146E-02  0.5636E-04  0.5628E-04  0.5636E-04  0.5628E-04  0.5636E-04  0.5628E-04  0.9716E-05  0.9704E-05  0.9716E-05  0.9704E-05  0.8415E-05  0.8403E-05  0.9716E-05  0.9704E-05  0.8415E-05  0.8403E-05
     -0.012  0.1217E-01  0.1215E-01  0.2226E-03  0.2223E-03  0.2226E-03  0.2223E-03  0.2226E-03  0.2223E-03  0.3853E-04  0.3848E-04  0.3853E-04  0.3848E-04  0.3351E-04  0.3347E-04  0.3853E-04  0.3848E-04  0.3351E-04  0.3347E-04
      0.061  0.3904E-01  0.3901E-01  0.7142E-03  0.7135E-03  0.7142E-03  0.7135E-03  0.7142E-03  0.7135E-03  0.1236E-03  0.1235E-03  0.1236E-03  0.1235E-03  0.1075E-03  0.1074E-03  0.1236E-03  0.1235E-03  0.1075E-03  0.1074E-03
      0.134  0.7068E-01  0.7066E-01  0.1293E-02  0.1293E-02  0.1293E-02  0.1293E-02  0.1293E-02  0.1293E-02  0.2238E-03  0.2238E-03  0.2238E-03  0.2238E-03  0.1947E-03  0.1946E-03  0.2238E-03  0.2238E-03  0.1947E-03  0.1946E-03
      0.207  0.5337E-01  0.5340E-01  0.9767E-03  0.9773E-03  0.9767E-03  0.9773E-03  0.9767E-03  0.9773E-03  0.1696E-03  0.1698E-03  0.1696E-03  0.1698E-03  0.1470E-03  0.1471E-03  0.1696E-03  0.1698E-03  0.1470E-03  0.1471E-03
      0.280  0.1970E-01  0.1972E-01  0.3616E-03  0.3621E-03  0.3616E-03  0.3621E-03  0.3616E-03  0.3621E-03  0.6443E-04  0.6451E-04  0.6443E-04  0.6451E-04  0.5416E-04  0.5423E-04  0.6443E-04  0.6451E-04  0.5416E-04  0.5423E-04
      0.353  0.5689E-02  0.5696E-02  0.1098E-03  0.1099E-03  0.1098E-03  0.1099E-03  0.1098E-03  0.1099E-03  0.2687E-04  0.2688E-04  0.2687E-04  0.2688E-04  0.1529E-04  0.1531E-04  0.2687E-04  0.2688E-04  0.1529E-04  0.1531E-04
      0.425  0.3407E-02  0.3405E-02  0.8675E-04  0.8669E-04  0.8675E-04  0.8669E-04  0.8675E-04  0.8669E-04  0.4834E-04  0.4829E-04  0.4834E-04  0.4829E-04  0.7781E-05  0.7780E-05  0.4834E-04  0.4829E-04  0.7781E-05  0.7780E-05
      0.498  0.9071E-02  0.9060E-02  0.2651E-03  0.2647E-03  0.2651E-03  0.2647E-03  0.2651E-03  0.2647E-03  0.1811E-03  0.1809E-03  0.1811E-03  0.1809E-03  0.1848E-04  0.1846E-04  0.1811E-03  0.1809E-03  0.1848E-04  0.1846E-04
      0.571  0.3007E-01  0.3004E-01  0.8896E-03  0.8886E-03  0.8896E-03  0.8886E-03  0.8896E-03  0.8886E-03  0.6175E-03  0.6169E-03  0.6175E-03  0.6169E-03  0.6054E-04  0.6048E-04  0.6175E-03  0.6169E-03  0.6054E-04  0.6048E-04
      0.644  0.6304E-01  0.6302E-01  0.1865E-02  0.1864E-02  0.1865E-02  0.1864E-02  0.1865E-02  0.1864E-02  0.1295E-02  0.1295E-02  0.1295E-02  0.1295E-02  0.1269E-03  0.1269E-03  0.1295E-02  0.1295E-02  0.1269E-03  0.1269E-03
      0.717  0.5688E-01  0.5691E-01  0.1684E-02  0.1684E-02  0.1684E-02  0.1684E-02  0.1684E-02  0.1684E-02  0.1174E-02  0.1175E-02  0.1174E-02  0.1175E-02  0.1155E-03  0.1155E-03  0.1174E-02  0.1175E-02  0.1155E-03  0.1155E-03
      0.790  0.2382E-01  0.2385E-01  0.7078E-03  0.7085E-03  0.7078E-03  0.7085E-03  0.7078E-03  0.7085E-03  0.5173E-03  0.5178E-03  0.5173E-03  0.5178E-03  0.5085E-04  0.5089E-04  0.5173E-03  0.5178E-03  0.5085E-04  0.5089E-04
      0.863  0.8675E-02  0.8680E-02  0.2695E-03  0.2697E-03  0.2695E-03  0.2697E-03  0.2695E-03  0.2697E-03  0.2953E-03  0.2953E-03  0.2953E-03  0.2953E-03  0.2995E-04  0.2994E-04  0.2953E-03  0.2953E-03  0.2995E-04  0.2994E-04
      0.936  0.1003E-01  0.1002E-01  0.3473E-03  0.3470E-03  0.3473E-03  0.3470E-03  0.3473E-03  0.3470E-03  0.6302E-03  0.6295E-03  0.6302E-03  0.6295E-03  0.7570E-04  0.7559E-04  0.6302E-03  0.6295E-03  0.7570E-04  0.7559E-04
      1.009  0.2367E-01  0.2365E-01  0.8645E-03  0.8638E-03  0.8645E-03  0.8638E-03  0.8645E-03  0.8638E-03  0.1496E-02  0.1495E-02  0.1496E-02  0.1495E-02  0.2990E-03  0.2985E-03  0.1496E-02  0.1495E-02  0.2990E-03  0.2985E-03
      1.082  0.4175E-01  0.4173E-01  0.1668E-02  0.1667E-02  0.1668E-02  0.1667E-02  0.1668E-02  0.1667E-02  0.1826E-02  0.1826E-02  0.1826E-02  0.1826E-02  0.1069E-02  0.1068E-02  0.1826E-02  0.1826E-02  0.1069E-02  0.1068E-02
      1.155  0.6303E-01  0.6301E-01  0.2752E-02  0.2751E-02  0.2752E-02  0.2751E-02  0.2752E-02  0.2751E-02  0.1339E-02  0.1340E-02  0.1339E-02  0.1340E-02  0.2516E-02  0.2515E-02  0.1339E-02  0.1340E-02  0.2516E-02  0.2515E-02
      1.228  0.5977E-01  0.5980E-01  0.2682E-02  0.2683E-02  0.2682E-02  0.2683E-02  0.2682E-02  0.2683E-02  0.8597E-03  0.8603E-03  0.8597E-03  0.8603E-03  0.2656E-02  0.2657E-02  0.8597E-03  0.8603E-03  0.2656E-02  0.2657E-02
      1.301  0.2816E-01  0.2819E-01  0.1279E-02  0.1281E-02  0.1279E-02  0.1281E-02  0.1279E-02  0.1281E-02  0.4648E-03  0.4650E-03  0.4648E-03  0.4650E-03  0.1254E-02  0.1255E-02  0.4648E-03  0.4650E-03  0.1254E-02  0.1255E-02
      1.374  0.1393E-01  0.1393E-01  0.6719E-03  0.6719E-03  0.6719E-03  0.6719E-03  0.6719E-03  0.6719E-03  0.6486E-03  0.6479E-03  0.6486E-03  0.6479E-03  0.5219E-03  0.5221E-03  0.6486E-03  0.6479E-03  0.5219E-03  0.5221E-03
      1.447  0.2666E-01  0.2663E-01  0.1373E-02  0.1371E-02  0.1373E-02  0.1371E-02  0.1373E-02  0.1371E-02  0.2247E-02  0.2244E-02  0.2247E-02  0.2244E-02  0.7673E-03  0.7665E-03  0.2247E-02  0.2244E-02  0.7673E-03  0.7665E-03
      1.520  0.7755E-01  0.7748E-01  0.4005E-02  0.4001E-02  0.4005E-02  0.4001E-02  0.4005E-02  0.4001E-02  0.7298E-02  0.7291E-02  0.7298E-02  0.7291E-02  0.2113E-02  0.2111E-02  0.7298E-02  0.7291E-02  0.2113E-02  0.2111E-02
      1.593  0.1369E+00  0.1368E+00  0.6924E-02  0.6922E-02  0.6924E-02  0.6922E-02  0.6924E-02  0.6922E-02  0.1553E-01  0.1552E-01  0.1553E-01  0.1552E-01  0.3536E-02  0.3535E-02  0.1553E-01  0.1552E-01  0.3536E-02  0.3535E-02
      1.666  0.1239E+00  0.1239E+00  0.5863E-02  0.5866E-02  0.5863E-02  0.5866E-02  0.5863E-02  0.5866E-02  0.2136E-01  0.2136E-01  0.2136E-01  0.2136E-01  0.2761E-02  0.2762E-02  0.2136E-01  0.2136E-01  0.2761E-02  0.2762E-02
      1.739  0.7531E-01  0.7536E-01  0.3084E-02  0.3087E-02  0.3084E-02  0.3087E-02  0.3084E-02  0.3087E-02  0.2298E-01  0.2298E-01  0.2298E-01  0.2298E-01  0.1292E-02  0.1293E-02  0.2298E-01  0.2298E-01  0.1292E-02  0.1293E-02
      1.812  0.4979E-01  0.4980E-01  0.1579E-02  0.1580E-02  0.1579E-02  0.1580E-02  0.1579E-02  0.1580E-02  0.2773E-01  0.2772E-01  0.2773E-01  0.2772E-01  0.6582E-03  0.6582E-03  0.2773E-01  0.2772E-01  0.6582E-03  0.6582E-03
      1.885  0.5565E-01  0.5564E-01  0.1506E-02  0.1506E-02  0.1506E-02  0.1506E-02  0.1506E-02  0.1506E-02  0.4176E-01  0.4175E-01  0.4176E-01  0.4175E-01  0.1184E-02  0.1182E-02  0.4176E-01  0.4175E-01  0.1184E-02  0.1182E-02
      1.957  0.5477E-01  0.5478E-01  0.1425E-02  0.1425E-02  0.1425E-02  0.1425E-02  0.1425E-02  0.1425E-02  0.4582E-01  0.4583E-01  0.4582E-01  0.4583E-01  0.4242E-02  0.4234E-02  0.4582E-01  0.4583E-01  0.4242E-02  0.4234E-02
      2.030  0.4105E-01  0.4105E-01  0.1514E-02  0.1513E-02  0.1514E-02  0.1513E-02  0.1514E-02  0.1513E-02  0.2851E-01  0.2853E-01  0.2851E-01  0.2853E-01  0.1604E-01  0.1601E-01  0.2851E-01  0.2853E-01  0.1604E-01  0.1601E-01
      2.103  0.5935E-01  0.5930E-01  0.3399E-02  0.3395E-02  0.3399E-02  0.3395E-02  0.3399E-02  0.3395E-02  0.2276E-01  0.2275E-01  0.2276E-01  0.2275E-01  0.4770E-01  0.4765E-01  0.2276E-01  0.2275E-01  0.4770E-01  0.4765E-01
      2.176  0.1135E+00  0.1134E+00  0.6863E-02  0.6860E-02  0.6863E-02  0.6860E-02  0.6863E-02  0.6860E-02  0.4758E-01  0.4753E-01  0.4758E-01  0.4753E-01  0.7932E-01  0.7930E-01  0.4758E-01  0.4753E-01  0.7932E-01  0.7930E-01