   4   4   1   0
  0.1747899E+02  0.4119635E-09  0.4119635E-09  0.4119635E-09  0.5000000E-15
  1.000000000000000E-004
  CAR 
 unknown system                          
     21.10537361     -1.31635192  301      8.94832231      1.00000000
     -1.316  0.0000E+00  0.0000E+00  0.0000E+00  0.0000E+00
     -1.242  0.0000E+00  0.0000E+00  0.0000E+00  0.0000E+00
     -1.167  0.0000E+00  0.0000E+00  0.0000E+00  0.0000E+00
     -1.092  0.0000E+00  0.0000E+00  0.0000E+00  0.0000E+00
     -1.017  0.0000E+00  0.0000E+00  0.0000E+00  0.0000E+00
     -0.943  0.0000E+00  0.0000E+00  0.0000E+00  0.0000E+00
     -0.868  0.0000E+00  0.0000E+00  0.0000E+00  0.0000E+00
     -0.793  0.0000E+00  0.0000E+00  0.0000E+00  0.0000E+00
     -0.718  0.1066E-03  0.1086E-03  0.7966E-05  0.8120E-05
     -0.644  0.3683E-03  0.3754E-03  0.3549E-04  0.3617E-04
     -0.569  0.1635E-02  0.1667E-02  0.1577E-03  0.1607E-03
     -0.494  0.7161E-02  0.7296E-02  0.6929E-03  0.7060E-03
     -0.419  0.2955E-01  0.3006E-01  0.2902E-02  0.2953E-02
     -0.345  0.9736E-01  0.9857E-01  0.1018E-01  0.1032E-01
     -0.270  0.1751E+00  0.1754E+00  0.2327E-01  0.2343E-01
     -0.195  0.1262E+00  0.1249E+00  0.3270E-01  0.3277E-01
     -0.121  0.4404E-01  0.4333E-01  0.3599E-01  0.3601E-01
     -0.046  0.1204E-01  0.1186E-01  0.3689E-01  0.3689E-01
      0.029  0.6992E-02  0.7031E-02  0.3741E-01  0.3742E-01
      0.104  0.2008E-01  0.1988E-01  0.3891E-01  0.3896E-01
      0.178  0.8104E-01  0.8249E-01  0.4498E-01  0.4512E-01
      0.253  0.2736E+00  0.2772E+00  0.6543E-01  0.6584E-01
      0.328  0.5192E+00  0.5206E+00  0.1042E+00  0.1048E+00
      0.403  0.3977E+00  0.3940E+00  0.1340E+00  0.1342E+00
      0.477  0.1435E+00  0.1412E+00  0.1447E+00  0.1448E+00
      0.552  0.3975E-01  0.3914E-01  0.1477E+00  0.1477E+00
      0.627  0.2303E-01  0.2316E-01  0.1494E+00  0.1494E+00
      0.702  0.6365E-01  0.6477E-01  0.1541E+00  0.1542E+00
      0.776  0.2221E+00  0.2254E+00  0.1708E+00  0.1711E+00
      0.851  0.4894E+00  0.4919E+00  0.2074E+00  0.2079E+00
      0.926  0.4513E+00  0.4480E+00  0.2411E+00  0.2414E+00
      1.001  0.1858E+00  0.1831E+00  0.2550E+00  0.2551E+00
      1.075  0.6655E-01  0.6602E-01  0.2599E+00  0.2600E+00
      1.150  0.8199E-01  0.8301E-01  0.2661E+00  0.2662E+00
      1.225  0.2002E+00  0.2023E+00  0.2810E+00  0.2813E+00
      1.300  0.3483E+00  0.3504E+00  0.3071E+00  0.3076E+00
      1.374  0.5294E+00  0.5316E+00  0.3467E+00  0.3473E+00
      1.449  0.5109E+00  0.5078E+00  0.3849E+00  0.3853E+00
      1.524  0.2367E+00  0.2335E+00  0.4026E+00  0.4027E+00
      1.598  0.1161E+00  0.1161E+00  0.4112E+00  0.4114E+00
      1.673  0.2373E+00  0.2414E+00  0.4290E+00  0.4295E+00
      1.748  0.7305E+00  0.7408E+00  0.4836E+00  0.4848E+00
      1.823  0.1362E+01  0.1368E+01  0.5855E+00  0.5871E+00
      1.897  0.1321E+01  0.1316E+01  0.6842E+00  0.6855E+00
      1.972  0.9096E+00  0.9051E+00  0.7521E+00  0.7531E+00
      2.047  0.7769E+00  0.7799E+00  0.8102E+00  0.8114E+00
      2.122  0.1040E+01  0.1046E+01  0.8880E+00  0.8896E+00
      2.196  0.1035E+01  0.1030E+01  0.9656E+00  0.9668E+00
      2.271  0.8312E+00  0.8329E+00  0.1028E+01  0.1029E+01
      2.346  0.1353E+01  0.1371E+01  0.1129E+01  0.1132E+01
      2.421  0.2422E+01  0.2442E+01  0.1310E+01  0.1314E+01
      2.495  0.3188E+01  0.3196E+01  0.1548E+01  0.1553E+01
      2.570  0.3076E+01  0.3071E+01  0.1778E+01  0.1783E+01
      2.645  0.3110E+01  0.3123E+01  0.2011E+01  0.2016E+01
      2.720  0.3682E+01  0.3689E+01  0.2286E+01  0.2292E+01
      2.794  0.3679E+01  0.3682E+01  0.2561E+01  0.2567E+01
      2.869  0.3890E+01  0.3891E+01  0.2852E+01  0.2858E+01
      2.944  0.3627E+01  0.3615E+01  0.3123E+01  0.3129E+01
      3.019  0.3253E+01  0.3250E+01  0.3366E+01  0.3372E+01
      3.093  0.3142E+01  0.3139E+01  0.3601E+01  0.3606E+01
      3.168  0.3362E+01  0.3385E+01  0.3853E+01  0.3859E+01
      3.243  0.4469E+01  0.4486E+01  0.4187E+01  0.4195E+01
      3.317  0.3857E+01  0.3820E+01  0.4475E+01  0.4481E+01
      3.392  0.2586E+01  0.2570E+01  0.4669E+01  0.4673E+01
      3.467  0.2189E+01  0.2182E+01  0.4833E+01  0.4836E+01
      3.542  0.2135E+01  0.2145E+01  0.4992E+01  0.4997E+01
      3.616  0.2847E+01  0.2868E+01  0.5205E+01  0.5211E+01
      3.691  0.3527E+01  0.3540E+01  0.5469E+01  0.5476E+01
      3.766  0.3672E+01  0.3667E+01  0.5744E+01  0.5750E+01
      3.841  0.3443E+01  0.3441E+01  0.6001E+01  0.6007E+01
      3.915  0.3422E+01  0.3418E+01  0.6257E+01  0.6263E+01
      3.990  0.3046E+01  0.3040E+01  0.6485E+01  0.6490E+01
      4.065  0.3553E+01  0.3585E+01  0.6750E+01  0.6758E+01
      4.140  0.5040E+01  0.5076E+01  0.7127E+01  0.7138E+01
      4.214  0.5804E+01  0.5797E+01  0.7561E+01  0.7572E+01
      4.289  0.4363E+01  0.4310E+01  0.7888E+01  0.7894E+01
      4.364  0.2840E+01  0.2829E+01  0.8100E+01  0.8105E+01
      4.439  0.3471E+01  0.3514E+01  0.8360E+01  0.8368E+01
      4.513  0.5693E+01  0.5751E+01  0.8785E+01  0.8798E+01
      4.588  0.6843E+01  0.6835E+01  0.9297E+01  0.9310E+01
      4.663  0.5699E+01  0.5666E+01  0.9724E+01  0.9734E+01
      4.738  0.4842E+01  0.4840E+01  0.1009E+02  0.1010E+02
      4.812  0.5418E+01  0.5450E+01  0.1049E+02  0.1050E+02
      4.887  0.6374E+01  0.6377E+01  0.1097E+02  0.1098E+02
      4.962  0.5499E+01  0.5458E+01  0.1138E+02  0.1139E+02
      5.036  0.4022E+01  0.3987E+01  0.1168E+02  0.1169E+02
      5.111  0.3285E+01  0.3286E+01  0.1193E+02  0.1193E+02
      5.186  0.3853E+01  0.3876E+01  0.1221E+02  0.1222E+02
      5.261  0.4478E+01  0.4480E+01  0.1255E+02  0.1256E+02
      5.335  0.4165E+01  0.4149E+01  0.1286E+02  0.1287E+02
      5.410  0.3636E+01  0.3631E+01  0.1313E+02  0.1314E+02
      5.485  0.3203E+01  0.3187E+01  0.1337E+02  0.1338E+02
      5.560  0.2626E+01  0.2626E+01  0.1357E+02  0.1357E+02
      5.634  0.3622E+01  0.3680E+01  0.1384E+02  0.1385E+02
      5.709  0.5388E+01  0.5414E+01  0.1424E+02  0.1425E+02
      5.784  0.5385E+01  0.5373E+01  0.1465E+02  0.1466E+02
      5.859  0.4818E+01  0.4800E+01  0.1501E+02  0.1502E+02
      5.933  0.4151E+01  0.4128E+01  0.1532E+02  0.1532E+02
      6.008  0.3208E+01  0.3179E+01  0.1556E+02  0.1556E+02
      6.083  0.2676E+01  0.2676E+01  0.1576E+02  0.1576E+02
      6.158  0.2817E+01  0.2823E+01  0.1597E+02  0.1597E+02
      6.232  0.3260E+01  0.3284E+01  0.1621E+02  0.1622E+02
      6.307  0.3903E+01  0.3908E+01  0.1650E+02  0.1651E+02
      6.382  0.3783E+01  0.3789E+01  0.1679E+02  0.1680E+02
      6.457  0.4604E+01  0.4641E+01  0.1713E+02  0.1714E+02
      6.531  0.4953E+01  0.4922E+01  0.1750E+02  0.1751E+02
      6.606  0.3200E+01  0.3142E+01  0.1774E+02  0.1775E+02
      6.681  0.2078E+01  0.2073E+01  0.1790E+02  0.1790E+02
      6.755  0.2716E+01  0.2764E+01  0.1810E+02  0.1811E+02
      6.830  0.4830E+01  0.4907E+01  0.1846E+02  0.1847E+02
      6.905  0.6606E+01  0.6624E+01  0.1895E+02  0.1897E+02
      6.980  0.6097E+01  0.6068E+01  0.1941E+02  0.1942E+02
      7.054  0.5275E+01  0.5251E+01  0.1980E+02  0.1982E+02
      7.129  0.4096E+01  0.4052E+01  0.2011E+02  0.2012E+02
      7.204  0.3107E+01  0.3096E+01  0.2034E+02  0.2035E+02
      7.279  0.3209E+01  0.3215E+01  0.2058E+02  0.2059E+02
      7.353  0.2833E+01  0.2799E+01  0.2080E+02  0.2080E+02
      7.428  0.1692E+01  0.1657E+01  0.2092E+02  0.2092E+02
      7.503  0.9107E+00  0.8945E+00  0.2099E+02  0.2099E+02
      7.578  0.8070E+00  0.8175E+00  0.2105E+02  0.2105E+02
      7.652  0.1438E+01  0.1458E+01  0.2116E+02  0.2116E+02
      7.727  0.1522E+01  0.1505E+01  0.2127E+02  0.2128E+02
      7.802  0.8745E+00  0.8596E+00  0.2134E+02  0.2134E+02
      7.877  0.7207E+00  0.7213E+00  0.2139E+02  0.2139E+02
      7.951  0.7457E+00  0.7438E+00  0.2145E+02  0.2145E+02
      8.026  0.7066E+00  0.7041E+00  0.2150E+02  0.2150E+02
      8.101  0.4912E+00  0.4829E+00  0.2154E+02  0.2154E+02
      8.176  0.1836E+00  0.1782E+00  0.2155E+02  0.2155E+02
      8.250  0.4780E-01  0.4617E-01  0.2155E+02  0.2155E+02
      8.325  0.1047E-01  0.1011E-01  0.2156E+02  0.2156E+02
      8.400  0.3595E-02  0.3564E-02  0.2156E+02  0.2156E+02
      8.474  0.4235E-02  0.4414E-02  0.2156E+02  0.2156E+02
      8.549  0.1909E-01  0.1989E-01  0.2156E+02  0.2156E+02
      8.624  0.8306E-01  0.8648E-01  0.2156E+02  0.2156E+02
      8.699  0.3390E+00  0.3517E+00  0.2159E+02  0.2159E+02
      8.773  0.1090E+01  0.1118E+01  0.2167E+02  0.2167E+02
      8.848  0.2027E+01  0.2039E+01  0.2182E+02  0.2183E+02
      8.923  0.1892E+01  0.1872E+01  0.2196E+02  0.2197E+02
      8.998  0.1182E+01  0.1164E+01  0.2205E+02  0.2205E+02
      9.072  0.5971E+00  0.5857E+00  0.2210E+02  0.2210E+02
      9.147  0.3072E+00  0.3065E+00  0.2212E+02  0.2212E+02
      9.222  0.4971E+00  0.5086E+00  0.2216E+02  0.2216E+02
      9.297  0.9948E+00  0.1004E+01  0.2223E+02  0.2223E+02
      9.371  0.8915E+00  0.8784E+00  0.2230E+02  0.2230E+02
      9.446  0.3539E+00  0.3433E+00  0.2232E+02  0.2232E+02
      9.521  0.9360E-01  0.9028E-01  0.2233E+02  0.2233E+02
      9.596  0.2199E-01  0.2130E-01  0.2233E+02  0.2233E+02
      9.670  0.5926E-02  0.5667E-02  0.2233E+02  0.2233E+02
      9.745  0.4112E-02  0.4267E-02  0.2233E+02  0.2233E+02
      9.820  0.1810E-01  0.1877E-01  0.2234E+02  0.2234E+02
      9.895  0.7815E-01  0.8098E-01  0.2234E+02  0.2234E+02
      9.969  0.3066E+00  0.3163E+00  0.2236E+02  0.2236E+02
     10.044  0.8693E+00  0.8852E+00  0.2243E+02  0.2243E+02
     10.119  0.1293E+01  0.1293E+01  0.2253E+02  0.2253E+02
     10.193  0.1171E+01  0.1164E+01  0.2261E+02  0.2261E+02
     10.268  0.9921E+00  0.9889E+00  0.2269E+02  0.2269E+02
     10.343  0.7656E+00  0.7594E+00  0.2274E+02  0.2275E+02
     10.418  0.4510E+00  0.4467E+00  0.2278E+02  0.2278E+02
     10.492  0.4866E+00  0.4948E+00  0.2281E+02  0.2282E+02
     10.567  0.9510E+00  0.9615E+00  0.2289E+02  0.2289E+02
     10.642  0.9608E+00  0.9501E+00  0.2296E+02  0.2296E+02
     10.717  0.4176E+00  0.4061E+00  0.2299E+02  0.2299E+02
     10.791  0.1152E+00  0.1113E+00  0.2300E+02  0.2300E+02
     10.866  0.3071E-01  0.2990E-01  0.2300E+02  0.2300E+02
     10.941  0.2291E-01  0.2329E-01  0.2300E+02  0.2300E+02
     11.016  0.7265E-01  0.7518E-01  0.2301E+02  0.2301E+02
     11.090  0.2847E+00  0.2933E+00  0.2303E+02  0.2303E+02
     11.165  0.7943E+00  0.8078E+00  0.2309E+02  0.2309E+02
     11.240  0.1041E+01  0.1035E+01  0.2317E+02  0.2317E+02
     11.315  0.5571E+00  0.5443E+00  0.2321E+02  0.2321E+02
     11.389  0.2000E+00  0.1960E+00  0.2322E+02  0.2322E+02
     11.464  0.1967E+00  0.2001E+00  0.2324E+02  0.2324E+02
     11.539  0.5664E+00  0.5791E+00  0.2328E+02  0.2328E+02
     11.614  0.1233E+01  0.1245E+01  0.2337E+02  0.2337E+02
     11.688  0.1505E+01  0.1506E+01  0.2348E+02  0.2349E+02
     11.763  0.1377E+01  0.1369E+01  0.2359E+02  0.2359E+02
     11.838  0.7556E+00  0.7406E+00  0.2364E+02  0.2364E+02
     11.912  0.2383E+00  0.2316E+00  0.2366E+02  0.2366E+02
     11.987  0.6399E-01  0.6243E-01  0.2367E+02  0.2367E+02
     12.062  0.3805E-01  0.3864E-01  0.2367E+02  0.2367E+02
     12.137  0.1050E+00  0.1087E+00  0.2368E+02  0.2368E+02
     12.211  0.3353E+00  0.3432E+00  0.2370E+02  0.2370E+02
     12.286  0.5880E+00  0.5904E+00  0.2375E+02  0.2375E+02
     12.361  0.5817E+00  0.5814E+00  0.2379E+02  0.2379E+02
     12.436  0.8568E+00  0.8691E+00  0.2385E+02  0.2386E+02
     12.510  0.1435E+01  0.1445E+01  0.2396E+02  0.2396E+02
     12.585  0.1647E+01  0.1646E+01  0.2408E+02  0.2409E+02
     12.660  0.1392E+01  0.1382E+01  0.2419E+02  0.2419E+02
     12.735  0.1081E+01  0.1080E+01  0.2427E+02  0.2427E+02
     12.809  0.1186E+01  0.1185E+01  0.2436E+02  0.2436E+02
     12.884  0.7971E+00  0.7836E+00  0.2442E+02  0.2442E+02
     12.959  0.2742E+00  0.2667E+00  0.2444E+02  0.2444E+02
     13.034  0.6793E-01  0.6585E-01  0.2444E+02  0.2444E+02
     13.108  0.1640E-01  0.1592E-01  0.2444E+02  0.2444E+02
     13.183  0.6956E-02  0.3525E-02  0.2444E+02  0.2444E+02
     13.258  0.1514E-01  0.1556E-01  0.2445E+02  0.2445E+02
     13.333  0.6387E-01  0.6553E-01  0.2445E+02  0.2445E+02
     13.407  0.2283E+00  0.2330E+00  0.2447E+02  0.2447E+02
     13.482  0.4962E+00  0.4997E+00  0.2450E+02  0.2451E+02
     13.557  0.4568E+00  0.4525E+00  0.2454E+02  0.2454E+02
     13.631  0.2244E+00  0.2220E+00  0.2456E+02  0.2456E+02
     13.706  0.1828E+00  0.1840E+00  0.2457E+02  0.2457E+02
     13.781  0.2062E+00  0.2058E+00  0.2458E+02  0.2459E+02
     13.856  0.1888E+00  0.1896E+00  0.2460E+02  0.2460E+02
     13.930  0.3933E+00  0.4029E+00  0.2463E+02  0.2463E+02
     14.005  0.1036E+01  0.1054E+01  0.2471E+02  0.2471E+02
     14.080  0.1609E+01  0.1614E+01  0.2483E+02  0.2483E+02
     14.155  0.1565E+01  0.1557E+01  0.2494E+02  0.2495E+02
     14.229  0.9708E+00  0.9556E+00  0.2502E+02  0.2502E+02
     14.304  0.5991E+00  0.5983E+00  0.2506E+02  0.2506E+02
     14.379  0.9737E+00  0.9861E+00  0.2513E+02  0.2514E+02
     14.454  0.1533E+01  0.1538E+01  0.2525E+02  0.2525E+02
     14.528  0.1360E+01  0.1351E+01  0.2535E+02  0.2535E+02
     14.603  0.1129E+01  0.1131E+01  0.2543E+02  0.2544E+02
     14.678  0.1174E+01  0.1170E+01  0.2552E+02  0.2552E+02
     14.753  0.6697E+00  0.6578E+00  0.2557E+02  0.2557E+02
     14.827  0.2114E+00  0.2061E+00  0.2559E+02  0.2559E+02
     14.902  0.6298E-01  0.6203E-01  0.2559E+02  0.2559E+02
     14.977  0.6916E-01  0.7072E-01  0.2560E+02  0.2560E+02
     15.052  0.2416E+00  0.2490E+00  0.2562E+02  0.2562E+02
     15.126  0.8423E+00  0.8619E+00  0.2568E+02  0.2568E+02
     15.201  0.1808E+01  0.1823E+01  0.2581E+02  0.2582E+02
     15.276  0.1813E+01  0.1796E+01  0.2595E+02  0.2595E+02
     15.350  0.8484E+00  0.8295E+00  0.2601E+02  0.2601E+02
     15.425  0.2443E+00  0.2373E+00  0.2603E+02  0.2603E+02
     15.500  0.5972E-01  0.5801E-01  0.2604E+02  0.2604E+02
     15.575  0.1788E-01  0.1786E-01  0.2604E+02  0.2604E+02
     15.649  0.2792E-01  0.2873E-01  0.2604E+02  0.2604E+02
     15.724  0.1125E+00  0.1159E+00  0.2605E+02  0.2605E+02
     15.799  0.3480E+00  0.3548E+00  0.2607E+02  0.2608E+02
     15.874  0.5635E+00  0.5642E+00  0.2612E+02  0.2612E+02
     15.948  0.4588E+00  0.4558E+00  0.2615E+02  0.2615E+02
     16.023  0.4805E+00  0.4835E+00  0.2619E+02  0.2619E+02
     16.098  0.5522E+00  0.5498E+00  0.2623E+02  0.2623E+02
     16.173  0.3032E+00  0.2971E+00  0.2625E+02  0.2625E+02
     16.247  0.9577E-01  0.9340E-01  0.2626E+02  0.2626E+02
     16.322  0.4742E-01  0.4751E-01  0.2626E+02  0.2626E+02
     16.397  0.1157E+00  0.1188E+00  0.2627E+02  0.2627E+02
     16.472  0.4479E+00  0.4596E+00  0.2630E+02  0.2630E+02
     16.546  0.1386E+01  0.1410E+01  0.2641E+02  0.2641E+02
     16.621  0.2277E+01  0.2280E+01  0.2658E+02  0.2658E+02
     16.696  0.1884E+01  0.1873E+01  0.2672E+02  0.2672E+02
     16.771  0.1473E+01  0.1466E+01  0.2683E+02  0.2683E+02
     16.845  0.9026E+00  0.8882E+00  0.2690E+02  0.2690E+02
     16.920  0.3205E+00  0.3130E+00  0.2692E+02  0.2692E+02
     16.995  0.1229E+00  0.1226E+00  0.2693E+02  0.2693E+02
     17.069  0.2060E+00  0.2108E+00  0.2694E+02  0.2695E+02
     17.144  0.4646E+00  0.4702E+00  0.2698E+02  0.2698E+02
     17.219  0.4969E+00  0.4924E+00  0.2702E+02  0.2702E+02
     17.294  0.2741E+00  0.2702E+00  0.2704E+02  0.2704E+02
     17.368  0.3006E+00  0.3052E+00  0.2706E+02  0.2706E+02
     17.443  0.7664E+00  0.7795E+00  0.2712E+02  0.2712E+02
     17.518  0.1303E+01  0.1307E+01  0.2721E+02  0.2722E+02
     17.593  0.1361E+01  0.1359E+01  0.2732E+02  0.2732E+02
     17.667  0.1267E+01  0.1260E+01  0.2741E+02  0.2741E+02
     17.742  0.6865E+00  0.6758E+00  0.2746E+02  0.2746E+02
     17.817  0.2466E+00  0.2432E+00  0.2748E+02  0.2748E+02
     17.892  0.1998E+00  0.2028E+00  0.2750E+02  0.2750E+02
     17.966  0.4232E+00  0.4290E+00  0.2753E+02  0.2753E+02
     18.041  0.5206E+00  0.5181E+00  0.2757E+02  0.2757E+02
     18.116  0.2909E+00  0.2871E+00  0.2759E+02  0.2759E+02
     18.191  0.1982E+00  0.2024E+00  0.2760E+02  0.2760E+02
     18.265  0.4029E+00  0.4045E+00  0.2763E+02  0.2763E+02
     18.340  0.6988E+00  0.6251E+00  0.2769E+02  0.2768E+02
     18.415  0.8843E+00  0.6609E+00  0.2775E+02  0.2773E+02
     18.490  0.1207E+01  0.1032E+01  0.2784E+02  0.2781E+02
     18.564  0.9849E+00  0.1183E+01  0.2792E+02  0.2790E+02
     18.639  0.4513E+00  0.6357E+00  0.2795E+02  0.2794E+02
     18.714  0.1400E+00  0.1995E+00  0.2796E+02  0.2796E+02
     18.788  0.3498E-01  0.4947E-01  0.2796E+02  0.2796E+02
     18.863  0.8059E-02  0.1137E-01  0.2796E+02  0.2796E+02
     18.938  0.9489E-03  0.9265E-03  0.2796E+02  0.2796E+02
     19.013  0.0000E+00  0.0000E+00  0.2796E+02  0.2796E+02
     19.087  0.0000E+00  0.0000E+00  0.2796E+02  0.2796E+02
     19.162  0.0000E+00  0.0000E+00  0.2796E+02  0.2796E+02
     19.237  0.0000E+00  0.0000E+00  0.2796E+02  0.2796E+02
     19.312  0.0000E+00  0.0000E+00  0.2796E+02  0.2796E+02
     19.386  0.0000E+00  0.0000E+00  0.2796E+02  0.2796E+02
     19.461  0.0000E+00  0.0000E+00  0.2796E+02  0.2796E+02
     19.536  0.0000E+00  0.0000E+00  0.2796E+02  0.2796E+02
     19.611  0.3763E-04  0.0000E+00  0.2796E+02  0.2796E+02
     19.685  0.1301E-03  0.1633E-03  0.2796E+02  0.2796E+02
     19.760  0.5792E-03  0.5639E-03  0.2796E+02  0.2796E+02
     19.835  0.2566E-02  0.2499E-02  0.2796E+02  0.2796E+02
     19.910  0.1112E-01  0.1084E-01  0.2796E+02  0.2796E+02
     19.984  0.4403E-01  0.4304E-01  0.2797E+02  0.2797E+02
     20.059  0.1267E+00  0.1249E+00  0.2798E+02  0.2798E+02
     20.134  0.1750E+00  0.1754E+00  0.2799E+02  0.2799E+02
     20.209  0.9689E-01  0.9857E-01  0.2800E+02  0.2800E+02
     20.283  0.2935E-01  0.3006E-01  0.2800E+02  0.2800E+02
     20.358  0.7108E-02  0.7296E-02  0.2800E+02  0.2800E+02
     20.433  0.1623E-02  0.1667E-02  0.2800E+02  0.2800E+02
     20.507  0.0000E+00  0.0000E+00  0.2800E+02  0.2800E+02
     20.582  0.0000E+00  0.0000E+00  0.2800E+02  0.2800E+02
     20.657  0.0000E+00  0.0000E+00  0.2800E+02  0.2800E+02
     20.732  0.0000E+00  0.0000E+00  0.2800E+02  0.2800E+02
     20.806  0.0000E+00  0.0000E+00  0.2800E+02  0.2800E+02
     20.881  0.0000E+00  0.0000E+00  0.2800E+02  0.2800E+02
     20.956  0.0000E+00  0.0000E+00  0.2800E+02  0.2800E+02
     21.031  0.0000E+00  0.0000E+00  0.2800E+02  0.2800E+02
     21.105  0.0000E+00  0.0000E+00  0.2800E+02  0.2800E+02
     21.10537361     -1.31635192  301      8.94832231      1.00000000
     -1.316  0.0000E+00  0.0000E+00  0.0000E+00  0.0000E+00  0.0000E+00  0.0000E+00  0.0000E+00  0.0000E+00  0.0000E+00  0.0000E+00  0.0000E+00  0.0000E+00  0.0000E+00  0.0000E+00  0.0000E+00  0.0000E+00  0.0000E+00  0.0000E+00
     -1.242  0.0000E+00  0.0000E+00  0.0000E+00  0.0000E+00  0.0000E+00  0.0000E+00  0.0000E+00  0.0000E+00  0.0000E+00  0.0000E+00  0.0000E+00  0.0000E+00  0.0000E+00  0.0000E+00  0.0000E+00  0.0000E+00  0.0000E+00  0.0000E+00
     -1.167  0.0000E+00  0.0000E+00  0.0000E+00  0.0000E+00  0.0000E+00  0.0000E+00  0.0000E+00  0.0000E+00  0.0000E+00  0.0000E+00  0.0000E+00  0.0000E+00  0.0000E+00  0.0000E+00  0.0000E+00  0.0000E+00  0.0000E+00  0.0000E+00
     -1.092  0.0000E+00  0.0000E+00  0.0000E+00  0.0000E+00  0.0000E+00  0.0000E+00  0.0000E+00  0.0000E+00  0.0000E+00  0.0000E+00  0.0000E+00  0.0000E+00  0.0000E+00  0.0000E+00  0.0000E+00  0.0000E+00  0.0000E+00  0.0000E+00
     -1.017  0.0000E+00  0.0000E+00  0.0000E+00  0.0000E+00  0.0000E+00  0.0000E+00  0.0000E+00  0.0000E+00  0.0000E+00  0.0000E+00  0.0000E+00  0.0000E+00  0.0000E+00  0.0000E+00  0.0000E+00  0.0000E+00  0.0000E+00  0.0000E+00
     -0.943  0.0000E+00  0.0000E+00  0.0000E+00  0.0000E+00  0.0000E+00  0.0000E+00  0.0000E+00  0.0000E+00  0.0000E+00  0.0000E+00  0.0000E+00  0.0000E+00  0.0000E+00  0.0000E+00  0.0000E+00  0.0000E+00  0.0000E+00  0.0000E+00
     -0.868  0.0000E+00  0.0000E+00  0.0000E+00  0.0000E+00  0.0000E+00  0.0000E+00  0.0000E+00  0.0000E+00  0.0000E+00  0.0000E+00  0.0000E+00  0.0000E+00  0.0000E+00  0.0000E+00  0.0000E+00  0.0000E+00  0.0000E+00  0.0000E+00
     -0.793  0.0000E+00  0.0000E+00  0.0000E+00  0.0000E+00  0.0000E+00  0.0000E+00  0.0000E+00  0.0000E+00  0.0000E+00  0.0000E+00  0.0000E+00  0.0000E+00  0.0000E+00  0.0000E+00  0.0000E+00  0.0000E+00  0.0000E+00  0.0000E+00
     -0.718  0.1552E-04  0.1581E-04  0.7977E-07  0.8130E-07  0.7977E-07  0.8130E-07  0.7977E-07  0.8130E-07  0.6720E-08  0.6852E-08  0.6720E-08  0.6852E-08  0.4685E-21  0.5704E-21  0.6720E-08  0.6852E-08  0.4685E-21  0.5704E-21
     -0.644  0.5361E-04  0.5464E-04  0.2756E-06  0.2809E-06  0.2756E-06  0.2809E-06  0.2756E-06  0.2809E-06  0.2322E-07  0.2368E-07  0.2322E-07  0.2368E-07  0.1619E-20  0.1971E-20  0.2322E-07  0.2368E-07  0.1619E-20  0.1971E-20
     -0.569  0.2380E-03  0.2426E-03  0.1224E-05  0.1247E-05  0.1224E-05  0.1247E-05  0.1224E-05  0.1247E-05  0.1031E-06  0.1051E-06  0.1031E-06  0.1051E-06  0.7187E-20  0.8749E-20  0.1031E-06  0.1051E-06  0.7187E-20  0.8749E-20
     -0.494  0.1042E-02  0.1062E-02  0.5359E-05  0.5460E-05  0.5359E-05  0.5460E-05  0.5359E-05  0.5460E-05  0.4514E-06  0.4602E-06  0.4514E-06  0.4602E-06  0.3148E-19  0.3830E-19  0.4514E-06  0.4602E-06  0.3148E-19  0.3830E-19
     -0.419  0.4302E-02  0.4376E-02  0.2212E-04  0.2250E-04  0.2212E-04  0.2250E-04  0.2212E-04  0.2250E-04  0.1863E-05  0.1896E-05  0.1863E-05  0.1896E-05  0.1299E-18  0.1578E-18  0.1863E-05  0.1896E-05  0.1299E-18  0.1578E-18
     -0.345  0.1417E-01  0.1435E-01  0.7287E-04  0.7376E-04  0.7287E-04  0.7376E-04  0.7287E-04  0.7376E-04  0.6138E-05  0.6217E-05  0.6138E-05  0.6217E-05  0.4279E-18  0.5175E-18  0.6138E-05  0.6217E-05  0.4279E-18  0.5175E-18
     -0.270  0.2549E-01  0.2554E-01  0.1311E-03  0.1313E-03  0.1311E-03  0.1313E-03  0.1311E-03  0.1313E-03  0.1104E-04  0.1106E-04  0.1104E-04  0.1106E-04  0.7697E-18  0.9209E-18  0.1104E-04  0.1106E-04  0.7697E-18  0.9209E-18
     -0.195  0.1837E-01  0.1819E-01  0.9443E-04  0.9350E-04  0.9443E-04  0.9350E-04  0.9443E-04  0.9350E-04  0.7954E-05  0.7880E-05  0.7954E-05  0.7880E-05  0.5546E-18  0.6559E-18  0.7954E-05  0.7880E-05  0.5546E-18  0.6559E-18
     -0.121  0.6408E-02  0.6306E-02  0.3350E-04  0.3298E-04  0.3350E-04  0.3298E-04  0.3350E-04  0.3298E-04  0.2885E-05  0.2844E-05  0.2885E-05  0.2844E-05  0.1104E-06  0.1126E-06  0.2885E-05  0.2844E-05  0.1104E-06  0.1126E-06
     -0.046  0.1746E-02  0.1719E-02  0.1088E-04  0.1078E-04  0.1088E-04  0.1078E-04  0.1088E-04  0.1078E-04  0.1135E-05  0.1131E-05  0.1135E-05  0.1131E-05  0.3814E-06  0.3890E-06  0.1135E-05  0.1131E-05  0.3814E-06  0.3890E-06
      0.029  0.9856E-03  0.9906E-03  0.1351E-04  0.1370E-04  0.1351E-04  0.1370E-04  0.1351E-04  0.1370E-04  0.2109E-05  0.2145E-05  0.2109E-05  0.2145E-05  0.1694E-05  0.1728E-05  0.2109E-05  0.2145E-05  0.1694E-05  0.1728E-05
      0.104  0.2781E-02  0.2749E-02  0.5134E-04  0.5189E-04  0.5134E-04  0.5189E-04  0.5134E-04  0.5189E-04  0.8581E-05  0.8713E-05  0.8581E-05  0.8713E-05  0.7432E-05  0.7577E-05  0.8581E-05  0.8713E-05  0.7432E-05  0.7577E-05
      0.178  0.1121E-01  0.1141E-01  0.2116E-03  0.2153E-03  0.2116E-03  0.2153E-03  0.2116E-03  0.2153E-03  0.3551E-04  0.3616E-04  0.3551E-04  0.3616E-04  0.3088E-04  0.3145E-04  0.3551E-04  0.3616E-04  0.3088E-04  0.3145E-04
      0.253  0.3785E-01  0.3834E-01  0.7143E-03  0.7237E-03  0.7143E-03  0.7237E-03  0.7143E-03  0.7237E-03  0.1199E-03  0.1215E-03  0.1199E-03  0.1215E-03  0.1043E-03  0.1057E-03  0.1199E-03  0.1215E-03  0.1043E-03  0.1057E-03
      0.328  0.7182E-01  0.7201E-01  0.1356E-02  0.1359E-02  0.1356E-02  0.1359E-02  0.1356E-02  0.1359E-02  0.2275E-03  0.2282E-03  0.2275E-03  0.2282E-03  0.1979E-03  0.1985E-03  0.2275E-03  0.2282E-03  0.1979E-03  0.1985E-03
      0.403  0.5501E-01  0.5450E-01  0.1039E-02  0.1029E-02  0.1039E-02  0.1029E-02  0.1039E-02  0.1029E-02  0.1747E-03  0.1732E-03  0.1747E-03  0.1732E-03  0.1515E-03  0.1502E-03  0.1747E-03  0.1732E-03  0.1515E-03  0.1502E-03
      0.477  0.1984E-01  0.1952E-01  0.3755E-03  0.3696E-03  0.3755E-03  0.3696E-03  0.3755E-03  0.3696E-03  0.6452E-04  0.6358E-04  0.6452E-04  0.6358E-04  0.5458E-04  0.5373E-04  0.6452E-04  0.6358E-04  0.5458E-04  0.5373E-04
      0.552  0.5470E-02  0.5385E-02  0.1082E-03  0.1067E-03  0.1082E-03  0.1067E-03  0.1082E-03  0.1067E-03  0.2478E-04  0.2467E-04  0.2478E-04  0.2467E-04  0.1474E-04  0.1451E-04  0.2478E-04  0.2467E-04  0.1474E-04  0.1451E-04
      0.627  0.3061E-02  0.3076E-02  0.7982E-04  0.8055E-04  0.7982E-04  0.8055E-04  0.7982E-04  0.8055E-04  0.4250E-04  0.4322E-04  0.4250E-04  0.4322E-04  0.6998E-05  0.7015E-05  0.4250E-04  0.4322E-04  0.6998E-05  0.7015E-05
      0.702  0.8276E-02  0.8421E-02  0.2495E-03  0.2540E-03  0.2495E-03  0.2540E-03  0.2495E-03  0.2540E-03  0.1649E-03  0.1681E-03  0.1649E-03  0.1681E-03  0.1674E-04  0.1703E-04  0.1649E-03  0.1681E-03  0.1674E-04  0.1703E-04
      0.776  0.2882E-01  0.2925E-01  0.8796E-03  0.8926E-03  0.8796E-03  0.8926E-03  0.8796E-03  0.8926E-03  0.5907E-03  0.5998E-03  0.5907E-03  0.5998E-03  0.5759E-04  0.5847E-04  0.5907E-03  0.5998E-03  0.5759E-04  0.5847E-04
      0.851  0.6351E-01  0.6383E-01  0.1938E-02  0.1948E-02  0.1938E-02  0.1948E-02  0.1938E-02  0.1948E-02  0.1302E-02  0.1309E-02  0.1302E-02  0.1309E-02  0.1269E-03  0.1276E-03  0.1302E-02  0.1309E-02  0.1269E-03  0.1276E-03
      0.926  0.5855E-01  0.5812E-01  0.1787E-02  0.1774E-02  0.1787E-02  0.1774E-02  0.1787E-02  0.1774E-02  0.1205E-02  0.1197E-02  0.1205E-02  0.1197E-02  0.1177E-03  0.1169E-03  0.1205E-02  0.1197E-02  0.1177E-03  0.1169E-03
      1.001  0.2406E-01  0.2370E-01  0.7369E-03  0.7260E-03  0.7369E-03  0.7260E-03  0.7369E-03  0.7260E-03  0.5190E-03  0.5124E-03  0.5190E-03  0.5124E-03  0.5034E-04  0.4968E-04  0.5190E-03  0.5124E-03  0.5034E-04  0.4968E-04
      1.075  0.8392E-02  0.8317E-02  0.2680E-03  0.2660E-03  0.2680E-03  0.2660E-03  0.2680E-03  0.2660E-03  0.2841E-03  0.2850E-03  0.2841E-03  0.2850E-03  0.2694E-04  0.2702E-04  0.2841E-03  0.2850E-03  0.2694E-04  0.2702E-04
      1.150  0.9701E-02  0.9816E-02  0.3442E-03  0.3487E-03  0.3442E-03  0.3487E-03  0.3442E-03  0.3487E-03  0.6207E-03  0.6305E-03  0.6207E-03  0.6305E-03  0.6661E-04  0.6790E-04  0.6207E-03  0.6305E-03  0.6661E-04  0.6790E-04
      1.225  0.2341E-01  0.2366E-01  0.8750E-03  0.8849E-03  0.8750E-03  0.8849E-03  0.8750E-03  0.8849E-03  0.1514E-02  0.1528E-02  0.1514E-02  0.1528E-02  0.2730E-03  0.2785E-03  0.1514E-02  0.1528E-02  0.2730E-03  0.2785E-03
      1.300  0.4101E-01  0.4127E-01  0.1682E-02  0.1695E-02  0.1682E-02  0.1695E-02  0.1682E-02  0.1695E-02  0.1830E-02  0.1826E-02  0.1830E-02  0.1826E-02  0.1022E-02  0.1039E-02  0.1830E-02  0.1826E-02  0.1022E-02  0.1039E-02
      1.374  0.6292E-01  0.6319E-01  0.2839E-02  0.2853E-02  0.2839E-02  0.2853E-02  0.2839E-02  0.2853E-02  0.1314E-02  0.1307E-02  0.1314E-02  0.1307E-02  0.2518E-02  0.2538E-02  0.1314E-02  0.1307E-02  0.2518E-02  0.2538E-02
      1.449  0.6088E-01  0.6050E-01  0.2824E-02  0.2807E-02  0.2824E-02  0.2807E-02  0.2824E-02  0.2807E-02  0.8485E-03  0.8420E-03  0.8485E-03  0.8420E-03  0.2712E-02  0.2698E-02  0.8485E-03  0.8420E-03  0.2712E-02  0.2698E-02
      1.524  0.2807E-01  0.2769E-01  0.1317E-02  0.1299E-02  0.1317E-02  0.1299E-02  0.1317E-02  0.1299E-02  0.4432E-03  0.4408E-03  0.4432E-03  0.4408E-03  0.1253E-02  0.1236E-02  0.4432E-03  0.4408E-03  0.1253E-02  0.1236E-02
      1.598  0.1316E-01  0.1314E-01  0.6543E-03  0.6543E-03  0.6543E-03  0.6543E-03  0.6543E-03  0.6543E-03  0.5990E-03  0.6089E-03  0.5990E-03  0.6089E-03  0.4948E-03  0.4919E-03  0.5990E-03  0.6089E-03  0.4948E-03  0.4919E-03
      1.673  0.2542E-01  0.2585E-01  0.1350E-02  0.1374E-02  0.1350E-02  0.1374E-02  0.1350E-02  0.1374E-02  0.2158E-02  0.2202E-02  0.2158E-02  0.2202E-02  0.7237E-03  0.7350E-03  0.2158E-02  0.2202E-02  0.7237E-03  0.7350E-03
      1.748  0.7728E-01  0.7835E-01  0.4116E-02  0.4171E-02  0.4116E-02  0.4171E-02  0.4116E-02  0.4171E-02  0.7304E-02  0.7425E-02  0.7304E-02  0.7425E-02  0.2081E-02  0.2110E-02  0.7304E-02  0.7425E-02  0.2081E-02  0.2110E-02
      1.823  0.1406E+00  0.1411E+00  0.7324E-02  0.7344E-02  0.7324E-02  0.7344E-02  0.7324E-02  0.7344E-02  0.1612E-01  0.1627E-01  0.1612E-01  0.1627E-01  0.3584E-02  0.3593E-02  0.1612E-01  0.1627E-01  0.3584E-02  0.3593E-02
      1.897  0.1269E+00  0.1262E+00  0.6155E-02  0.6111E-02  0.6155E-02  0.6111E-02  0.6155E-02  0.6111E-02  0.2235E-01  0.2243E-01  0.2235E-01  0.2243E-01  0.2776E-02  0.2753E-02  0.2235E-01  0.2243E-01  0.2776E-02  0.2753E-02
      1.972  0.7503E-01  0.7439E-01  0.3111E-02  0.3074E-02  0.3111E-02  0.3074E-02  0.3111E-02  0.3074E-02  0.2377E-01  0.2383E-01  0.2377E-01  0.2383E-01  0.1253E-02  0.1238E-02  0.2377E-01  0.2383E-01  0.1253E-02  0.1238E-02
      2.047  0.5051E-01  0.5051E-01  0.1614E-02  0.1608E-02  0.1614E-02  0.1608E-02  0.1614E-02  0.1608E-02  0.2894E-01  0.2917E-01  0.2894E-01  0.2917E-01  0.6848E-03  0.6883E-03  0.2894E-01  0.2917E-01  0.6848E-03  0.6883E-03
      2.122  0.5813E-01  0.5831E-01  0.1591E-02  0.1593E-02  0.1591E-02  0.1593E-02  0.1591E-02  0.1593E-02  0.4396E-01  0.4423E-01  0.4396E-01  0.4423E-01  0.1460E-02  0.1499E-02  0.4396E-01  0.4423E-01  0.1460E-02  0.1499E-02
      2.196  0.5249E-01  0.5215E-01  0.1386E-02  0.1381E-02  0.1386E-02  0.1381E-02  0.1386E-02  0.1381E-02  0.4370E-01  0.4341E-01  0.4370E-01  0.4341E-01  0.5540E-02  0.5706E-02  0.4370E-01  0.4341E-01  0.5540E-02  0.5706E-02
      2.271  0.3848E-01  0.3846E-01  0.1547E-02  0.1564E-02  0.1547E-02  0.1564E-02  0.1547E-02  0.1564E-02  0.2434E-01  0.2405E-01  0.2434E-01  0.2405E-01  0.2102E-01  0.2158E-01  0.2434E-01  0.2405E-01  0.2102E-01  0.2158E-01
      2.346  0.6194E-01  0.6278E-01  0.3713E-02  0.3773E-02  0.3713E-02  0.3773E-02  0.3713E-02  0.3773E-02  0.2179E-01  0.2204E-01  0.2179E-01  0.2204E-01  0.5689E-01  0.5771E-01  0.2179E-01  0.2204E-01  0.5689E-01  0.5771E-01
      2.421  0.1183E+00  0.1193E+00  0.7387E-02  0.7445E-02  0.7387E-02  0.7445E-02  0.7387E-02  0.7445E-02  0.5045E-01  0.5130E-01  0.5045E-01  0.5130E-01  0.7933E-01  0.7934E-01  0.5045E-01  0.5130E-01  0.7933E-01  0.7934E-01