   4   4   1   0
  0.1593765E+02  0.3994798E-09  0.3994798E-09  0.3994798E-09  0.5000000E-15
  1.000000000000000E-004
  CAR 
 unknown system                          
     23.36242856     -0.79610497  301     10.51257195      1.00000000
     -0.796  0.0000E+00  0.0000E+00  0.0000E+00  0.0000E+00
     -0.716  0.0000E+00  0.0000E+00  0.0000E+00  0.0000E+00
     -0.635  0.0000E+00  0.0000E+00  0.0000E+00  0.0000E+00
     -0.555  0.0000E+00  0.0000E+00  0.0000E+00  0.0000E+00
     -0.474  0.0000E+00  0.0000E+00  0.0000E+00  0.0000E+00
     -0.393  0.0000E+00  0.0000E+00  0.0000E+00  0.0000E+00
     -0.313  0.0000E+00  0.0000E+00  0.0000E+00  0.0000E+00
     -0.232  0.0000E+00  0.0000E+00  0.0000E+00  0.0000E+00
     -0.152  0.5251E-04  0.5244E-04  0.4228E-05  0.4223E-05
     -0.071  0.2102E-03  0.2099E-03  0.2116E-04  0.2113E-04
      0.009  0.1049E-02  0.1048E-02  0.1057E-03  0.1055E-03
      0.090  0.5181E-02  0.5175E-02  0.5229E-03  0.5222E-03
      0.170  0.2427E-01  0.2424E-01  0.2477E-02  0.2474E-02
      0.251  0.9069E-01  0.9061E-01  0.9780E-02  0.9771E-02
      0.331  0.1740E+00  0.1740E+00  0.2379E-01  0.2378E-01
      0.412  0.1184E+00  0.1185E+00  0.3333E-01  0.3333E-01
      0.492  0.3617E-01  0.3621E-01  0.3624E-01  0.3624E-01
      0.573  0.8486E-02  0.8495E-02  0.3693E-01  0.3693E-01
      0.653  0.4228E-02  0.4227E-02  0.3727E-01  0.3727E-01
      0.734  0.1288E-01  0.1287E-01  0.3834E-01  0.3834E-01
      0.814  0.6103E-01  0.6096E-01  0.4325E-01  0.4324E-01
      0.895  0.2384E+00  0.2382E+00  0.6245E-01  0.6243E-01
      0.976  0.5088E+00  0.5087E+00  0.1034E+00  0.1034E+00
      1.056  0.3918E+00  0.3920E+00  0.1350E+00  0.1350E+00
      1.137  0.1279E+00  0.1281E+00  0.1453E+00  0.1453E+00
      1.217  0.3067E-01  0.3071E-01  0.1477E+00  0.1477E+00
      1.298  0.1543E-01  0.1542E-01  0.1490E+00  0.1490E+00
      1.378  0.4581E-01  0.4575E-01  0.1528E+00  0.1528E+00
      1.459  0.1898E+00  0.1896E+00  0.1681E+00  0.1681E+00
      1.539  0.4736E+00  0.4734E+00  0.2062E+00  0.2062E+00
      1.620  0.4464E+00  0.4466E+00  0.2422E+00  0.2421E+00
      1.700  0.1678E+00  0.1680E+00  0.2557E+00  0.2557E+00
      1.781  0.5459E-01  0.5462E-01  0.2601E+00  0.2601E+00
      1.861  0.7625E-01  0.7615E-01  0.2662E+00  0.2662E+00
      1.942  0.1926E+00  0.1924E+00  0.2819E+00  0.2819E+00
      2.022  0.3120E+00  0.3120E+00  0.3070E+00  0.3070E+00
      2.103  0.4985E+00  0.4985E+00  0.3472E+00  0.3471E+00
      2.183  0.4931E+00  0.4932E+00  0.3869E+00  0.3869E+00
      2.264  0.2062E+00  0.2063E+00  0.4035E+00  0.4035E+00
      2.345  0.9171E-01  0.9167E-01  0.4109E+00  0.4109E+00
      2.425  0.2174E+00  0.2171E+00  0.4284E+00  0.4284E+00
      2.506  0.7593E+00  0.7583E+00  0.4896E+00  0.4894E+00
      2.586  0.1484E+01  0.1483E+01  0.6091E+00  0.6089E+00
      2.667  0.1349E+01  0.1349E+01  0.7178E+00  0.7176E+00
      2.747  0.8627E+00  0.8627E+00  0.7872E+00  0.7871E+00
      2.828  0.9610E+00  0.9598E+00  0.8646E+00  0.8643E+00
      2.908  0.1112E+01  0.1113E+01  0.9542E+00  0.9540E+00
      2.989  0.8117E+00  0.8137E+00  0.1020E+01  0.1020E+01
      3.069  0.1010E+01  0.1010E+01  0.1101E+01  0.1101E+01
      3.150  0.1677E+01  0.1675E+01  0.1236E+01  0.1236E+01
      3.230  0.2785E+01  0.2782E+01  0.1460E+01  0.1460E+01
      3.311  0.3203E+01  0.3203E+01  0.1718E+01  0.1718E+01
      3.391  0.2958E+01  0.2959E+01  0.1957E+01  0.1956E+01
      3.472  0.3301E+01  0.3303E+01  0.2223E+01  0.2222E+01
      3.552  0.3388E+01  0.3388E+01  0.2496E+01  0.2495E+01
      3.633  0.3595E+01  0.3594E+01  0.2785E+01  0.2785E+01
      3.713  0.3231E+01  0.3230E+01  0.3046E+01  0.3045E+01
      3.794  0.2799E+01  0.2799E+01  0.3272E+01  0.3271E+01
      3.875  0.2667E+01  0.2667E+01  0.3486E+01  0.3486E+01
      3.955  0.2782E+01  0.2782E+01  0.3711E+01  0.3710E+01
      4.036  0.3905E+01  0.3904E+01  0.4026E+01  0.4025E+01
      4.116  0.4297E+01  0.4299E+01  0.4372E+01  0.4371E+01
      4.197  0.2575E+01  0.2577E+01  0.4579E+01  0.4579E+01
      4.277  0.2019E+01  0.2020E+01  0.4742E+01  0.4742E+01
      4.358  0.1747E+01  0.1747E+01  0.4883E+01  0.4882E+01
      4.438  0.1871E+01  0.1869E+01  0.5033E+01  0.5033E+01
      4.519  0.2770E+01  0.2769E+01  0.5257E+01  0.5256E+01
      4.599  0.3338E+01  0.3339E+01  0.5526E+01  0.5525E+01
      4.680  0.3246E+01  0.3248E+01  0.5787E+01  0.5787E+01
      4.760  0.2904E+01  0.2904E+01  0.6021E+01  0.6021E+01
      4.841  0.2922E+01  0.2921E+01  0.6256E+01  0.6256E+01
      4.921  0.2472E+01  0.2472E+01  0.6456E+01  0.6456E+01
      5.002  0.2654E+01  0.2652E+01  0.6670E+01  0.6670E+01
      5.082  0.4118E+01  0.4116E+01  0.7002E+01  0.7001E+01
      5.163  0.5343E+01  0.5343E+01  0.7432E+01  0.7432E+01
      5.244  0.4540E+01  0.4543E+01  0.7799E+01  0.7798E+01
      5.324  0.2506E+01  0.2508E+01  0.8000E+01  0.8000E+01
      5.405  0.2109E+01  0.2107E+01  0.8170E+01  0.8170E+01
      5.485  0.3585E+01  0.3580E+01  0.8459E+01  0.8458E+01
      5.566  0.5842E+01  0.5839E+01  0.8930E+01  0.8929E+01
      5.646  0.5891E+01  0.5894E+01  0.9405E+01  0.9404E+01
      5.727  0.4337E+01  0.4339E+01  0.9754E+01  0.9753E+01
      5.807  0.3829E+01  0.3828E+01  0.1006E+02  0.1006E+02
      5.888  0.4582E+01  0.4578E+01  0.1043E+02  0.1043E+02
      5.968  0.5824E+01  0.5823E+01  0.1090E+02  0.1090E+02
      6.049  0.5178E+01  0.5181E+01  0.1132E+02  0.1132E+02
      6.129  0.3848E+01  0.3851E+01  0.1163E+02  0.1163E+02
      6.210  0.2673E+01  0.2675E+01  0.1184E+02  0.1184E+02
      6.290  0.3098E+01  0.3097E+01  0.1209E+02  0.1209E+02
      6.371  0.4422E+01  0.4421E+01  0.1245E+02  0.1245E+02
      6.451  0.3832E+01  0.3834E+01  0.1276E+02  0.1276E+02
      6.532  0.2926E+01  0.2927E+01  0.1299E+02  0.1299E+02
      6.613  0.2794E+01  0.2795E+01  0.1322E+02  0.1322E+02
      6.693  0.2414E+01  0.2415E+01  0.1341E+02  0.1341E+02
      6.774  0.1893E+01  0.1892E+01  0.1357E+02  0.1357E+02
      6.854  0.3008E+01  0.3004E+01  0.1381E+02  0.1381E+02
      6.935  0.4843E+01  0.4842E+01  0.1420E+02  0.1420E+02
      7.015  0.4582E+01  0.4584E+01  0.1457E+02  0.1457E+02
      7.096  0.4213E+01  0.4214E+01  0.1491E+02  0.1491E+02
      7.176  0.3830E+01  0.3831E+01  0.1522E+02  0.1522E+02
      7.257  0.3269E+01  0.3270E+01  0.1548E+02  0.1548E+02
      7.337  0.2346E+01  0.2347E+01  0.1567E+02  0.1567E+02
      7.418  0.2158E+01  0.2158E+01  0.1584E+02  0.1584E+02
      7.498  0.2563E+01  0.2563E+01  0.1605E+02  0.1605E+02
      7.579  0.2866E+01  0.2864E+01  0.1628E+02  0.1628E+02
      7.659  0.3171E+01  0.3171E+01  0.1654E+02  0.1654E+02
      7.740  0.2911E+01  0.2911E+01  0.1677E+02  0.1677E+02
      7.820  0.4078E+01  0.4076E+01  0.1710E+02  0.1710E+02
      7.901  0.4776E+01  0.4778E+01  0.1749E+02  0.1749E+02
      7.981  0.2913E+01  0.2917E+01  0.1772E+02  0.1772E+02
      8.062  0.1585E+01  0.1586E+01  0.1785E+02  0.1785E+02
      8.143  0.1763E+01  0.1762E+01  0.1799E+02  0.1799E+02
      8.223  0.3048E+01  0.3044E+01  0.1824E+02  0.1824E+02
      8.304  0.4939E+01  0.4936E+01  0.1863E+02  0.1863E+02
      8.384  0.5636E+01  0.5637E+01  0.1909E+02  0.1909E+02
      8.465  0.4674E+01  0.4675E+01  0.1946E+02  0.1946E+02
      8.545  0.4350E+01  0.4350E+01  0.1982E+02  0.1981E+02
      8.626  0.3445E+01  0.3448E+01  0.2009E+02  0.2009E+02
      8.706  0.2496E+01  0.2496E+01  0.2029E+02  0.2029E+02
      8.787  0.2715E+01  0.2714E+01  0.2051E+02  0.2051E+02
      8.867  0.3025E+01  0.3025E+01  0.2076E+02  0.2076E+02
      8.948  0.2013E+01  0.2015E+01  0.2092E+02  0.2092E+02
      9.028  0.8879E+00  0.8892E+00  0.2099E+02  0.2099E+02
      9.109  0.6734E+00  0.6729E+00  0.2105E+02  0.2104E+02
      9.189  0.1375E+01  0.1374E+01  0.2116E+02  0.2116E+02
      9.270  0.1584E+01  0.1585E+01  0.2128E+02  0.2128E+02
      9.350  0.1046E+01  0.1047E+01  0.2137E+02  0.2137E+02
      9.431  0.9333E+00  0.9331E+00  0.2144E+02  0.2144E+02
      9.512  0.8066E+00  0.8069E+00  0.2151E+02  0.2151E+02
      9.592  0.4297E+00  0.4306E+00  0.2154E+02  0.2154E+02
      9.673  0.1231E+00  0.1234E+00  0.2155E+02  0.2155E+02
      9.753  0.2695E-01  0.2705E-01  0.2156E+02  0.2156E+02
      9.834  0.4917E-02  0.4936E-02  0.2156E+02  0.2156E+02
      9.914  0.1076E-03  0.1079E-03  0.2156E+02  0.2156E+02
      9.995  0.1035E-02  0.1035E-02  0.2156E+02  0.2156E+02
     10.075  0.4570E-02  0.4573E-02  0.2156E+02  0.2156E+02
     10.156  0.2274E-01  0.2275E-01  0.2156E+02  0.2156E+02
     10.236  0.1106E+00  0.1107E+00  0.2157E+02  0.2157E+02
     10.317  0.4864E+00  0.4864E+00  0.2161E+02  0.2161E+02
     10.397  0.1535E+01  0.1534E+01  0.2173E+02  0.2173E+02
     10.478  0.2481E+01  0.2480E+01  0.2193E+02  0.2193E+02
     10.558  0.1621E+01  0.1622E+01  0.2206E+02  0.2206E+02
     10.639  0.5057E+00  0.5063E+00  0.2210E+02  0.2210E+02
     10.719  0.1432E+00  0.1432E+00  0.2211E+02  0.2211E+02
     10.800  0.1711E+00  0.1706E+00  0.2213E+02  0.2213E+02
     10.881  0.5553E+00  0.5541E+00  0.2217E+02  0.2217E+02
     10.961  0.1047E+01  0.1046E+01  0.2226E+02  0.2226E+02
     11.042  0.6989E+00  0.7002E+00  0.2231E+02  0.2231E+02
     11.122  0.2105E+00  0.2111E+00  0.2233E+02  0.2233E+02
     11.203  0.4649E-01  0.4663E-01  0.2233E+02  0.2233E+02
     11.283  0.9964E-02  0.9993E-02  0.2233E+02  0.2233E+02
     11.364  0.2647E-02  0.2636E-02  0.2233E+02  0.2233E+02
     11.444  0.1306E-01  0.1301E-01  0.2233E+02  0.2233E+02
     11.525  0.6300E-01  0.6275E-01  0.2234E+02  0.2234E+02
     11.605  0.2691E+00  0.2682E+00  0.2236E+02  0.2236E+02
     11.686  0.7830E+00  0.7818E+00  0.2242E+02  0.2242E+02
     11.766  0.1299E+01  0.1299E+01  0.2253E+02  0.2253E+02
     11.847  0.1348E+01  0.1349E+01  0.2264E+02  0.2264E+02
     11.927  0.9944E+00  0.9955E+00  0.2272E+02  0.2272E+02
     12.008  0.5390E+00  0.5392E+00  0.2276E+02  0.2276E+02
     12.088  0.1782E+00  0.1782E+00  0.2278E+02  0.2278E+02
     12.169  0.1070E+00  0.1068E+00  0.2278E+02  0.2278E+02
     12.250  0.3165E+00  0.3157E+00  0.2281E+02  0.2281E+02
     12.330  0.8674E+00  0.8663E+00  0.2288E+02  0.2288E+02
     12.411  0.9665E+00  0.9673E+00  0.2296E+02  0.2296E+02
     12.491  0.4017E+00  0.4027E+00  0.2299E+02  0.2299E+02
     12.572  0.9965E-01  0.9996E-01  0.2300E+02  0.2300E+02
     12.652  0.2825E-01  0.2831E-01  0.2300E+02  0.2300E+02
     12.733  0.4236E-01  0.4236E-01  0.2300E+02  0.2300E+02
     12.813  0.1764E+00  0.1764E+00  0.2302E+02  0.2302E+02
     12.894  0.6234E+00  0.6232E+00  0.2307E+02  0.2307E+02
     12.974  0.1057E+01  0.1057E+01  0.2315E+02  0.2315E+02
     13.055  0.6393E+00  0.6394E+00  0.2320E+02  0.2320E+02
     13.135  0.2278E+00  0.2277E+00  0.2322E+02  0.2322E+02
     13.216  0.2583E+00  0.2574E+00  0.2324E+02  0.2324E+02
     13.296  0.7333E+00  0.7316E+00  0.2330E+02  0.2330E+02
     13.377  0.1112E+01  0.1113E+01  0.2339E+02  0.2339E+02
     13.457  0.8414E+00  0.8418E+00  0.2346E+02  0.2346E+02
     13.538  0.9958E+00  0.9947E+00  0.2354E+02  0.2354E+02
     13.618  0.1010E+01  0.1011E+01  0.2362E+02  0.2362E+02
     13.699  0.4228E+00  0.4244E+00  0.2366E+02  0.2366E+02
     13.780  0.1027E+00  0.1032E+00  0.2366E+02  0.2366E+02
     13.860  0.2170E-01  0.2180E-01  0.2367E+02  0.2367E+02
     13.941  0.5347E-02  0.5362E-02  0.2367E+02  0.2367E+02
     14.021  0.5223E-02  0.5196E-02  0.2367E+02  0.2367E+02
     14.102  0.2540E-01  0.2528E-01  0.2367E+02  0.2367E+02
     14.182  0.1188E+00  0.1182E+00  0.2368E+02  0.2368E+02
     14.263  0.4478E+00  0.4462E+00  0.2371E+02  0.2371E+02
     14.343  0.1023E+01  0.1022E+01  0.2380E+02  0.2380E+02
     14.424  0.1531E+01  0.1530E+01  0.2392E+02  0.2392E+02
     14.504  0.1931E+01  0.1931E+01  0.2408E+02  0.2408E+02
     14.585  0.1424E+01  0.1426E+01  0.2419E+02  0.2419E+02
     14.665  0.8838E+00  0.8831E+00  0.2426E+02  0.2426E+02
     14.746  0.1104E+01  0.1103E+01  0.2435E+02  0.2435E+02
     14.826  0.8173E+00  0.8197E+00  0.2442E+02  0.2442E+02
     14.907  0.2655E+00  0.2669E+00  0.2444E+02  0.2444E+02
     14.987  0.6722E-01  0.6757E-01  0.2444E+02  0.2444E+02
     15.068  0.4831E-01  0.4826E-01  0.2445E+02  0.2445E+02
     15.149  0.1552E+00  0.1548E+00  0.2446E+02  0.2446E+02
     15.229  0.4340E+00  0.4334E+00  0.2450E+02  0.2450E+02
     15.310  0.4830E+00  0.4835E+00  0.2453E+02  0.2453E+02
     15.390  0.2006E+00  0.2011E+00  0.2455E+02  0.2455E+02
     15.471  0.4956E-01  0.4972E-01  0.2455E+02  0.2455E+02
     15.551  0.1311E-01  0.1314E-01  0.2456E+02  0.2456E+02
     15.632  0.1731E-01  0.1729E-01  0.2456E+02  0.2456E+02
     15.712  0.6390E-01  0.6381E-01  0.2456E+02  0.2456E+02
     15.793  0.1793E+00  0.1792E+00  0.2458E+02  0.2458E+02
     15.873  0.2818E+00  0.2817E+00  0.2460E+02  0.2460E+02
     15.954  0.6154E+00  0.6147E+00  0.2465E+02  0.2465E+02
     16.034  0.1635E+01  0.1634E+01  0.2478E+02  0.2478E+02
     16.115  0.2043E+01  0.2044E+01  0.2495E+02  0.2494E+02
     16.195  0.1199E+01  0.1199E+01  0.2504E+02  0.2504E+02
     16.276  0.1184E+01  0.1183E+01  0.2514E+02  0.2514E+02
     16.356  0.1603E+01  0.1603E+01  0.2527E+02  0.2527E+02
     16.437  0.9671E+00  0.9689E+00  0.2534E+02  0.2534E+02
     16.518  0.3766E+00  0.3767E+00  0.2537E+02  0.2537E+02
     16.598  0.4768E+00  0.4745E+00  0.2541E+02  0.2541E+02
     16.679  0.9913E+00  0.9894E+00  0.2549E+02  0.2549E+02
     16.759  0.8504E+00  0.8532E+00  0.2556E+02  0.2556E+02
     16.840  0.2994E+00  0.3013E+00  0.2559E+02  0.2559E+02
     16.920  0.7786E-01  0.7837E-01  0.2559E+02  0.2559E+02
     17.001  0.6023E-01  0.6027E-01  0.2560E+02  0.2560E+02
     17.081  0.2159E+00  0.2156E+00  0.2561E+02  0.2561E+02
     17.162  0.8116E+00  0.8106E+00  0.2568E+02  0.2568E+02
     17.242  0.1592E+01  0.1592E+01  0.2581E+02  0.2581E+02
     17.323  0.1216E+01  0.1216E+01  0.2591E+02  0.2591E+02
     17.403  0.7397E+00  0.7390E+00  0.2597E+02  0.2597E+02
     17.484  0.5734E+00  0.5742E+00  0.2601E+02  0.2601E+02
     17.564  0.2385E+00  0.2396E+00  0.2603E+02  0.2603E+02
     17.645  0.5878E-01  0.5913E-01  0.2604E+02  0.2604E+02
     17.725  0.2543E-01  0.2552E-01  0.2604E+02  0.2604E+02
     17.806  0.6710E-01  0.6717E-01  0.2604E+02  0.2604E+02
     17.886  0.2531E+00  0.2533E+00  0.2606E+02  0.2606E+02
     17.967  0.5563E+00  0.5564E+00  0.2611E+02  0.2611E+02
     18.048  0.5723E+00  0.5721E+00  0.2615E+02  0.2615E+02
     18.128  0.5944E+00  0.5942E+00  0.2620E+02  0.2620E+02
     18.209  0.4784E+00  0.4784E+00  0.2624E+02  0.2624E+02
     18.289  0.1773E+00  0.1773E+00  0.2626E+02  0.2626E+02
     18.370  0.6025E-01  0.6020E-01  0.2626E+02  0.2626E+02
     18.450  0.1096E+00  0.1093E+00  0.2627E+02  0.2627E+02
     18.531  0.4508E+00  0.4496E+00  0.2631E+02  0.2631E+02
     18.611  0.1424E+01  0.1422E+01  0.2642E+02  0.2642E+02
     18.692  0.2177E+01  0.2177E+01  0.2660E+02  0.2660E+02
     18.772  0.1721E+01  0.1721E+01  0.2673E+02  0.2673E+02
     18.853  0.1376E+01  0.1376E+01  0.2685E+02  0.2684E+02
     18.933  0.7369E+00  0.7385E+00  0.2690E+02  0.2690E+02
     19.014  0.2112E+00  0.2119E+00  0.2692E+02  0.2692E+02
     19.094  0.5116E-01  0.5137E-01  0.2693E+02  0.2693E+02
     19.175  0.4986E-01  0.5007E-01  0.2693E+02  0.2693E+02
     19.255  0.1744E+00  0.1750E+00  0.2694E+02  0.2694E+02
     19.336  0.4629E+00  0.4636E+00  0.2698E+02  0.2698E+02
     19.417  0.4999E+00  0.4993E+00  0.2702E+02  0.2702E+02
     19.497  0.3505E+00  0.3501E+00  0.2705E+02  0.2705E+02
     19.578  0.7360E+00  0.7364E+00  0.2711E+02  0.2711E+02
     19.658  0.1738E+01  0.1739E+01  0.2725E+02  0.2725E+02
     19.739  0.1828E+01  0.1828E+01  0.2740E+02  0.2740E+02
     19.819  0.8000E+00  0.7988E+00  0.2746E+02  0.2746E+02
     19.900  0.2093E+00  0.2088E+00  0.2748E+02  0.2748E+02
     19.980  0.7392E-01  0.7393E-01  0.2748E+02  0.2748E+02
     20.061  0.1435E+00  0.1439E+00  0.2750E+02  0.2750E+02
     20.141  0.4089E+00  0.4096E+00  0.2753E+02  0.2753E+02
     20.222  0.5121E+00  0.5119E+00  0.2757E+02  0.2757E+02
     20.302  0.2780E+00  0.2780E+00  0.2759E+02  0.2759E+02
     20.383  0.2834E+00  0.2862E+00  0.2762E+02  0.2762E+02
     20.463  0.6455E+00  0.6589E+00  0.2767E+02  0.2767E+02
     20.544  0.8828E+00  0.9334E+00  0.2774E+02  0.2774E+02
     20.624  0.1047E+01  0.1126E+01  0.2782E+02  0.2783E+02
     20.705  0.1088E+01  0.1042E+01  0.2791E+02  0.2792E+02
     20.786  0.4964E+00  0.4248E+00  0.2795E+02  0.2795E+02
     20.866  0.1250E+00  0.1021E+00  0.2796E+02  0.2796E+02
     20.947  0.2617E-01  0.2109E-01  0.2796E+02  0.2796E+02
     21.027  0.5288E-02  0.4253E-02  0.2796E+02  0.2796E+02
     21.108  0.0000E+00  0.0000E+00  0.2796E+02  0.2796E+02
     21.188  0.0000E+00  0.0000E+00  0.2796E+02  0.2796E+02
     21.269  0.0000E+00  0.0000E+00  0.2796E+02  0.2796E+02
     21.349  0.0000E+00  0.0000E+00  0.2796E+02  0.2796E+02
     21.430  0.0000E+00  0.0000E+00  0.2796E+02  0.2796E+02
     21.510  0.0000E+00  0.0000E+00  0.2796E+02  0.2796E+02
     21.591  0.0000E+00  0.0000E+00  0.2796E+02  0.2796E+02
     21.671  0.0000E+00  0.0000E+00  0.2796E+02  0.2796E+02
     21.752  0.0000E+00  0.0000E+00  0.2796E+02  0.2796E+02
     21.832  0.8146E-04  0.9208E-04  0.2796E+02  0.2796E+02
     21.913  0.3260E-03  0.3685E-03  0.2796E+02  0.2796E+02
     21.993  0.1625E-02  0.1836E-02  0.2796E+02  0.2796E+02
     22.074  0.7965E-02  0.8973E-02  0.2796E+02  0.2796E+02
     22.155  0.3604E-01  0.4010E-01  0.2797E+02  0.2797E+02
     22.235  0.1184E+00  0.1263E+00  0.2798E+02  0.2798E+02
     22.316  0.1740E+00  0.1715E+00  0.2799E+02  0.2799E+02
     22.396  0.9069E-01  0.8339E-01  0.2800E+02  0.2800E+02
     22.477  0.2427E-01  0.2167E-01  0.2800E+02  0.2800E+02
     22.557  0.5181E-02  0.4593E-02  0.2800E+02  0.2800E+02
     22.638  0.1049E-02  0.9286E-03  0.2800E+02  0.2800E+02
     22.718  0.0000E+00  0.0000E+00  0.2800E+02  0.2800E+02
     22.799  0.0000E+00  0.0000E+00  0.2800E+02  0.2800E+02
     22.879  0.0000E+00  0.0000E+00  0.2800E+02  0.2800E+02
     22.960  0.0000E+00  0.0000E+00  0.2800E+02  0.2800E+02
     23.040  0.0000E+00  0.0000E+00  0.2800E+02  0.2800E+02
     23.121  0.0000E+00  0.0000E+00  0.2800E+02  0.2800E+02
     23.201  0.0000E+00  0.0000E+00  0.2800E+02  0.2800E+02
     23.282  0.0000E+00  0.0000E+00  0.2800E+02  0.2800E+02
     23.362  0.0000E+00  0.0000E+00  0.2800E+02  0.2800E+02
     23.36242856     -0.79610497  301     10.51257195      1.00000000
     -0.796  0.0000E+00  0.0000E+00  0.0000E+00  0.0000E+00  0.0000E+00  0.0000E+00  0.0000E+00  0.0000E+00  0.0000E+00  0.0000E+00  0.0000E+00  0.0000E+00  0.0000E+00  0.0000E+00  0.0000E+00  0.0000E+00  0.0000E+00  0.0000E+00
     -0.716  0.0000E+00  0.0000E+00  0.0000E+00  0.0000E+00  0.0000E+00  0.0000E+00  0.0000E+00  0.0000E+00  0.0000E+00  0.0000E+00  0.0000E+00  0.0000E+00  0.0000E+00  0.0000E+00  0.0000E+00  0.0000E+00  0.0000E+00  0.0000E+00
     -0.635  0.0000E+00  0.0000E+00  0.0000E+00  0.0000E+00  0.0000E+00  0.0000E+00  0.0000E+00  0.0000E+00  0.0000E+00  0.0000E+00  0.0000E+00  0.0000E+00  0.0000E+00  0.0000E+00  0.0000E+00  0.0000E+00  0.0000E+00  0.0000E+00
     -0.555  0.0000E+00  0.0000E+00  0.0000E+00  0.0000E+00  0.0000E+00  0.0000E+00  0.0000E+00  0.0000E+00  0.0000E+00  0.0000E+00  0.0000E+00  0.0000E+00  0.0000E+00  0.0000E+00  0.0000E+00  0.0000E+00  0.0000E+00  0.0000E+00
     -0.474  0.0000E+00  0.0000E+00  0.0000E+00  0.0000E+00  0.0000E+00  0.0000E+00  0.0000E+00  0.0000E+00  0.0000E+00  0.0000E+00  0.0000E+00  0.0000E+00  0.0000E+00  0.0000E+00  0.0000E+00  0.0000E+00  0.0000E+00  0.0000E+00
     -0.393  0.0000E+00  0.0000E+00  0.0000E+00  0.0000E+00  0.0000E+00  0.0000E+00  0.0000E+00  0.0000E+00  0.0000E+00  0.0000E+00  0.0000E+00  0.0000E+00  0.0000E+00  0.0000E+00  0.0000E+00  0.0000E+00  0.0000E+00  0.0000E+00
     -0.313  0.0000E+00  0.0000E+00  0.0000E+00  0.0000E+00  0.0000E+00  0.0000E+00  0.0000E+00  0.0000E+00  0.0000E+00  0.0000E+00  0.0000E+00  0.0000E+00  0.0000E+00  0.0000E+00  0.0000E+00  0.0000E+00  0.0000E+00  0.0000E+00
     -0.232  0.0000E+00  0.0000E+00  0.0000E+00  0.0000E+00  0.0000E+00  0.0000E+00  0.0000E+00  0.0000E+00  0.0000E+00  0.0000E+00  0.0000E+00  0.0000E+00  0.0000E+00  0.0000E+00  0.0000E+00  0.0000E+00  0.0000E+00  0.0000E+00
     -0.152  0.8306E-05  0.8295E-05  0.4677E-07  0.4671E-07  0.4677E-07  0.4671E-07  0.4677E-07  0.4671E-07  0.3673E-08  0.3667E-08  0.3673E-08  0.3667E-08  0.7476E-23  0.3184E-23  0.3673E-08  0.3667E-08  0.7476E-23  0.3184E-23
     -0.071  0.3325E-04  0.3321E-04  0.1872E-06  0.1870E-06  0.1872E-06  0.1870E-06  0.1872E-06  0.1870E-06  0.1471E-07  0.1468E-07  0.1471E-07  0.1468E-07  0.2993E-22  0.1275E-22  0.1471E-07  0.1468E-07  0.2993E-22  0.1275E-22
      0.009  0.1660E-03  0.1658E-03  0.9346E-06  0.9335E-06  0.9346E-06  0.9335E-06  0.9346E-06  0.9335E-06  0.7341E-07  0.7329E-07  0.7341E-07  0.7329E-07  0.1494E-21  0.6364E-22  0.7341E-07  0.7329E-07  0.1494E-21  0.6364E-22
      0.090  0.8197E-03  0.8186E-03  0.4615E-05  0.4610E-05  0.4615E-05  0.4610E-05  0.4615E-05  0.4610E-05  0.3625E-06  0.3619E-06  0.3625E-06  0.3619E-06  0.7377E-21  0.3142E-21  0.3625E-06  0.3619E-06  0.7377E-21  0.3142E-21
      0.170  0.3839E-02  0.3835E-02  0.2162E-04  0.2159E-04  0.2162E-04  0.2159E-04  0.2162E-04  0.2159E-04  0.1698E-05  0.1695E-05  0.1698E-05  0.1695E-05  0.3456E-20  0.1472E-20  0.1698E-05  0.1695E-05  0.3456E-20  0.1472E-20
      0.251  0.1435E-01  0.1433E-01  0.8078E-04  0.8071E-04  0.8078E-04  0.8071E-04  0.8078E-04  0.8071E-04  0.6344E-05  0.6337E-05  0.6344E-05  0.6337E-05  0.1291E-19  0.5502E-20  0.6344E-05  0.6337E-05  0.1291E-19  0.5502E-20
      0.331  0.2752E-01  0.2752E-01  0.1550E-03  0.1550E-03  0.1550E-03  0.1550E-03  0.1550E-03  0.1550E-03  0.1217E-04  0.1217E-04  0.1217E-04  0.1217E-04  0.2477E-19  0.1056E-19  0.1217E-04  0.1217E-04  0.2477E-19  0.1056E-19
      0.412  0.1874E-01  0.1875E-01  0.1055E-03  0.1056E-03  0.1055E-03  0.1056E-03  0.1055E-03  0.1056E-03  0.8287E-05  0.8290E-05  0.8287E-05  0.8290E-05  0.1686E-19  0.7198E-20  0.8287E-05  0.8290E-05  0.1686E-19  0.7198E-20
      0.492  0.5720E-02  0.5726E-02  0.3250E-04  0.3254E-04  0.3250E-04  0.3254E-04  0.3250E-04  0.3254E-04  0.2584E-05  0.2585E-05  0.2584E-05  0.2585E-05  0.5406E-07  0.5400E-07  0.2584E-05  0.2585E-05  0.5406E-07  0.5400E-07
      0.573  0.1338E-02  0.1339E-02  0.8709E-05  0.8716E-05  0.8709E-05  0.8716E-05  0.8709E-05  0.8716E-05  0.8072E-06  0.8073E-06  0.8072E-06  0.8073E-06  0.2164E-06  0.2162E-06  0.8072E-06  0.8073E-06  0.2164E-06  0.2162E-06
      0.653  0.6466E-03  0.6463E-03  0.9512E-05  0.9504E-05  0.9512E-05  0.9504E-05  0.9512E-05  0.9504E-05  0.1362E-05  0.1360E-05  0.1362E-05  0.1360E-05  0.1081E-05  0.1080E-05  0.1362E-05  0.1360E-05  0.1081E-05  0.1080E-05
      0.734  0.1928E-02  0.1925E-02  0.3991E-04  0.3987E-04  0.3991E-04  0.3987E-04  0.3991E-04  0.3987E-04  0.6179E-05  0.6170E-05  0.6179E-05  0.6170E-05  0.5350E-05  0.5344E-05  0.6179E-05  0.6170E-05  0.5350E-05  0.5344E-05
      0.814  0.9132E-02  0.9120E-02  0.1891E-03  0.1888E-03  0.1891E-03  0.1888E-03  0.1891E-03  0.1888E-03  0.2927E-04  0.2923E-04  0.2927E-04  0.2923E-04  0.2534E-04  0.2532E-04  0.2927E-04  0.2923E-04  0.2534E-04  0.2532E-04
      0.895  0.3567E-01  0.3564E-01  0.7386E-03  0.7379E-03  0.7386E-03  0.7379E-03  0.7386E-03  0.7379E-03  0.1143E-03  0.1142E-03  0.1143E-03  0.1142E-03  0.9901E-04  0.9893E-04  0.1143E-03  0.1142E-03  0.9901E-04  0.9893E-04
      0.976  0.7613E-01  0.7611E-01  0.1576E-02  0.1576E-02  0.1576E-02  0.1576E-02  0.1576E-02  0.1576E-02  0.2440E-03  0.2439E-03  0.2440E-03  0.2439E-03  0.2113E-03  0.2113E-03  0.2440E-03  0.2439E-03  0.2113E-03  0.2113E-03
      1.056  0.5862E-01  0.5865E-01  0.1214E-02  0.1215E-02  0.1214E-02  0.1215E-02  0.1214E-02  0.1215E-02  0.1881E-03  0.1882E-03  0.1881E-03  0.1882E-03  0.1627E-03  0.1628E-03  0.1881E-03  0.1882E-03  0.1627E-03  0.1628E-03
      1.137  0.1914E-01  0.1916E-01  0.3969E-03  0.3973E-03  0.3969E-03  0.3973E-03  0.3969E-03  0.3973E-03  0.6227E-04  0.6232E-04  0.6227E-04  0.6232E-04  0.5307E-04  0.5313E-04  0.6227E-04  0.6232E-04  0.5307E-04  0.5313E-04
      1.217  0.4571E-02  0.4575E-02  0.9805E-04  0.9815E-04  0.9805E-04  0.9815E-04  0.9805E-04  0.9815E-04  0.1932E-04  0.1932E-04  0.1932E-04  0.1932E-04  0.1247E-04  0.1248E-04  0.1932E-04  0.1932E-04  0.1247E-04  0.1248E-04
      1.298  0.2214E-02  0.2213E-02  0.6279E-04  0.6275E-04  0.6279E-04  0.6275E-04  0.6279E-04  0.6275E-04  0.3027E-04  0.3022E-04  0.3027E-04  0.3022E-04  0.5055E-05  0.5055E-05  0.3027E-04  0.3022E-04  0.5055E-05  0.5055E-05
      1.378  0.6401E-02  0.6392E-02  0.2140E-03  0.2137E-03  0.2140E-03  0.2137E-03  0.2140E-03  0.2137E-03  0.1319E-03  0.1316E-03  0.1319E-03  0.1316E-03  0.1253E-04  0.1252E-04  0.1319E-03  0.1316E-03  0.1253E-04  0.1252E-04
      1.459  0.2652E-01  0.2649E-01  0.8866E-03  0.8857E-03  0.8866E-03  0.8857E-03  0.8866E-03  0.8857E-03  0.5463E-03  0.5455E-03  0.5463E-03  0.5455E-03  0.5191E-04  0.5187E-04  0.5463E-03  0.5455E-03  0.5191E-04  0.5187E-04
      1.539  0.6618E-01  0.6614E-01  0.2212E-02  0.2211E-02  0.2212E-02  0.2211E-02  0.2212E-02  0.2211E-02  0.1364E-02  0.1363E-02  0.1364E-02  0.1363E-02  0.1295E-03  0.1295E-03  0.1364E-02  0.1363E-02  0.1295E-03  0.1295E-03
      1.620  0.6237E-01  0.6239E-01  0.2085E-02  0.2086E-02  0.2085E-02  0.2086E-02  0.2085E-02  0.2086E-02  0.1289E-02  0.1290E-02  0.1289E-02  0.1290E-02  0.1219E-03  0.1220E-03  0.1289E-02  0.1290E-02  0.1219E-03  0.1220E-03
      1.700  0.2340E-01  0.2342E-01  0.7844E-03  0.7854E-03  0.7844E-03  0.7854E-03  0.7844E-03  0.7854E-03  0.5053E-03  0.5057E-03  0.5053E-03  0.5057E-03  0.4729E-04  0.4736E-04  0.5053E-03  0.5057E-03  0.4729E-04  0.4736E-04
      1.781  0.7383E-02  0.7386E-02  0.2570E-03  0.2571E-03  0.2570E-03  0.2571E-03  0.2570E-03  0.2571E-03  0.2652E-03  0.2649E-03  0.2652E-03  0.2649E-03  0.1983E-04  0.1985E-04  0.2652E-03  0.2649E-03  0.1983E-04  0.1985E-04
      1.861  0.9614E-02  0.9601E-02  0.3668E-03  0.3663E-03  0.3668E-03  0.3663E-03  0.3668E-03  0.3663E-03  0.6694E-03  0.6682E-03  0.6694E-03  0.6682E-03  0.4836E-04  0.4833E-04  0.6694E-03  0.6682E-03  0.4836E-04  0.4833E-04
      1.942  0.2403E-01  0.2401E-01  0.9605E-03  0.9598E-03  0.9605E-03  0.9598E-03  0.9605E-03  0.9598E-03  0.1680E-02  0.1678E-02  0.1680E-02  0.1678E-02  0.2236E-03  0.2234E-03  0.1680E-02  0.1678E-02  0.2236E-03  0.2234E-03
      2.022  0.3931E-01  0.3930E-01  0.1755E-02  0.1755E-02  0.1755E-02  0.1755E-02  0.1755E-02  0.1755E-02  0.1807E-02  0.1808E-02  0.1807E-02  0.1808E-02  0.9574E-03  0.9569E-03  0.1807E-02  0.1808E-02  0.9574E-03  0.9569E-03
      2.103  0.6347E-01  0.6346E-01  0.3171E-02  0.3171E-02  0.3171E-02  0.3171E-02  0.3171E-02  0.3171E-02  0.1194E-02  0.1195E-02  0.1194E-02  0.1195E-02  0.2632E-02  0.2631E-02  0.1194E-02  0.1195E-02  0.2632E-02  0.2631E-02
      2.183  0.6291E-01  0.6292E-01  0.3223E-02  0.3223E-02  0.3223E-02  0.3223E-02  0.3223E-02  0.3223E-02  0.7998E-03  0.8000E-03  0.7998E-03  0.8000E-03  0.2856E-02  0.2857E-02  0.7998E-03  0.8000E-03  0.2856E-02  0.2857E-02
      2.264  0.2619E-01  0.2621E-01  0.1353E-02  0.1354E-02  0.1353E-02  0.1354E-02  0.1353E-02  0.1354E-02  0.3868E-03  0.3867E-03  0.3868E-03  0.3867E-03  0.1187E-02  0.1187E-02  0.3868E-03  0.3867E-03  0.1187E-02  0.1187E-02
      2.345  0.1104E-01  0.1103E-01  0.6035E-03  0.6033E-03  0.6035E-03  0.6033E-03  0.6035E-03  0.6033E-03  0.5400E-03  0.5389E-03  0.5400E-03  0.5389E-03  0.4134E-03  0.4135E-03  0.5400E-03  0.5389E-03  0.4134E-03  0.4135E-03
      2.425  0.2455E-01  0.2451E-01  0.1421E-02  0.1419E-02  0.1421E-02  0.1419E-02  0.1421E-02  0.1419E-02  0.2284E-02  0.2278E-02  0.2284E-02  0.2278E-02  0.6687E-03  0.6680E-03  0.2284E-02  0.2278E-02  0.6687E-03  0.6680E-03
      2.506  0.8456E-01  0.8444E-01  0.4883E-02  0.4877E-02  0.4883E-02  0.4877E-02  0.4883E-02  0.4877E-02  0.8762E-02  0.8744E-02  0.8762E-02  0.8744E-02  0.2183E-02  0.2181E-02  0.8762E-02  0.8744E-02  0.2183E-02  0.2181E-02
      2.586  0.1597E+00  0.1597E+00  0.8925E-02  0.8924E-02  0.8925E-02  0.8924E-02  0.8925E-02  0.8924E-02  0.2091E-01  0.2088E-01  0.2091E-01  0.2088E-01  0.3854E-02  0.3855E-02  0.2091E-01  0.2088E-01  0.3854E-02  0.3855E-02
      2.667  0.1323E+00  0.1323E+00  0.6713E-02  0.6719E-02  0.6713E-02  0.6719E-02  0.6713E-02  0.6719E-02  0.2771E-01  0.2769E-01  0.2771E-01  0.2769E-01  0.2685E-02  0.2689E-02  0.2771E-01  0.2769E-01  0.2685E-02  0.2689E-02
      2.747  0.6955E-01  0.6958E-01  0.2889E-02  0.2892E-02  0.2889E-02  0.2892E-02  0.2889E-02  0.2892E-02  0.2717E-01  0.2715E-01  0.2717E-01  0.2715E-01  0.1158E-02  0.1161E-02  0.2717E-01  0.2715E-01  0.1158E-02  0.1161E-02
      2.828  0.6028E-01  0.6022E-01  0.1895E-02  0.1895E-02  0.1895E-02  0.1895E-02  0.1895E-02  0.1895E-02  0.4003E-01  0.3996E-01  0.4003E-01  0.3996E-01  0.1528E-02  0.1531E-02  0.4003E-01  0.3996E-01  0.1528E-02  0.1531E-02
      2.908  0.6149E-01  0.6154E-01  0.1698E-02  0.1700E-02  0.1698E-02  0.1700E-02  0.1698E-02  0.1700E-02  0.4786E-01  0.4789E-01  0.4786E-01  0.4789E-01  0.5953E-02  0.5967E-02  0.4786E-01  0.4789E-01  0.5953E-02  0.5967E-02
      2.989  0.3632E-01  0.3641E-01  0.1170E-02  0.1172E-02  0.1170E-02  0.1172E-02  0.1170E-02  0.1172E-02  0.2527E-01  0.2535E-01  0.2527E-01  0.2535E-01  0.2334E-01  0.2338E-01  0.2527E-01  0.2535E-01  0.2334E-01  0.2338E-01
      3.069  0.3892E-01  0.3893E-01  0.2196E-02  0.2196E-02  0.2196E-02  0.2196E-02  0.2196E-02  0.2196E-02  0.1366E-01  0.1366E-01  0.1366E-01  0.1366E-01  0.5611E-01  0.5614E-01  0.1366E-01  0.1366E-01  0.5611E-01  0.5614E-01
      3.150  0.8318E-01  0.8307E-01  0.5767E-02  0.5762E-02  0.5767E-02  0.5762E-02  0.5767E-02  0.5762E-02  0.2937E-01  0.2928E-01  0.2937E-01  0.2928E-01  0.6773E-01  0.6771E-01  0.2937E-01  0.2928E-01  0.6773E-01  0.6771E-01
      3.230  0.1462E+00  0.1460E+00  0.9930E-02  0.9920E-02  0.9930E-02  0.9920E-02  0.9930E-02  0.9920E-02  0.7659E-01  0.7645E-01  0.7659E-01  0.7645E-01  0.6822E-01  0.6822E-01  0.7659E-01  0.7645E-01  0.6822E-01  0.6822E-01