   4   4   1   0
  0.1644091E+02  0.4036410E-09  0.4036410E-09  0.4036410E-09  0.5000000E-15
  1.000000000000000E-004
  CAR 
 unknown system                          
     22.58668329     -0.98016105  301      9.95419710      1.00000000
     -0.980  0.0000E+00  0.0000E+00  0.0000E+00  0.0000E+00
     -0.902  0.0000E+00  0.0000E+00  0.0000E+00  0.0000E+00
     -0.823  0.0000E+00  0.0000E+00  0.0000E+00  0.0000E+00
     -0.744  0.0000E+00  0.0000E+00  0.0000E+00  0.0000E+00
     -0.666  0.0000E+00  0.0000E+00  0.0000E+00  0.0000E+00
     -0.587  0.0000E+00  0.0000E+00  0.0000E+00  0.0000E+00
     -0.509  0.0000E+00  0.0000E+00  0.0000E+00  0.0000E+00
     -0.430  0.0000E+00  0.0000E+00  0.0000E+00  0.0000E+00
     -0.352  0.6723E-04  0.6713E-04  0.5281E-05  0.5273E-05
     -0.273  0.2561E-03  0.2557E-03  0.2540E-04  0.2536E-04
     -0.195  0.1228E-02  0.1227E-02  0.1219E-03  0.1217E-03
     -0.116  0.5823E-02  0.5814E-02  0.5793E-03  0.5785E-03
     -0.037  0.2612E-01  0.2608E-01  0.2631E-02  0.2627E-02
      0.041  0.9333E-01  0.9323E-01  0.9962E-02  0.9951E-02
      0.120  0.1745E+00  0.1745E+00  0.2367E-01  0.2366E-01
      0.198  0.1206E+00  0.1207E+00  0.3315E-01  0.3314E-01
      0.277  0.3847E-01  0.3852E-01  0.3617E-01  0.3617E-01
      0.355  0.9508E-02  0.9520E-02  0.3692E-01  0.3692E-01
      0.434  0.5051E-02  0.5050E-02  0.3731E-01  0.3731E-01
      0.512  0.1506E-01  0.1503E-01  0.3853E-01  0.3853E-01
      0.591  0.6818E-01  0.6808E-01  0.4389E-01  0.4388E-01
      0.670  0.2526E+00  0.2524E+00  0.6374E-01  0.6371E-01
      0.748  0.5137E+00  0.5136E+00  0.1041E+00  0.1041E+00
      0.827  0.3910E+00  0.3913E+00  0.1348E+00  0.1348E+00
      0.905  0.1314E+00  0.1315E+00  0.1451E+00  0.1451E+00
      0.984  0.3309E-01  0.3313E-01  0.1477E+00  0.1477E+00
      1.062  0.1780E-01  0.1779E-01  0.1491E+00  0.1491E+00
      1.141  0.5165E-01  0.5157E-01  0.1533E+00  0.1533E+00
      1.219  0.2033E+00  0.2031E+00  0.1693E+00  0.1693E+00
      1.298  0.4817E+00  0.4814E+00  0.2071E+00  0.2071E+00
      1.377  0.4450E+00  0.4453E+00  0.2421E+00  0.2421E+00
      1.455  0.1712E+00  0.1714E+00  0.2555E+00  0.2555E+00
      1.534  0.5784E-01  0.5787E-01  0.2601E+00  0.2601E+00
      1.612  0.7857E-01  0.7846E-01  0.2663E+00  0.2662E+00
      1.691  0.1975E+00  0.1973E+00  0.2818E+00  0.2817E+00
      1.769  0.3267E+00  0.3267E+00  0.3075E+00  0.3074E+00
      1.848  0.5116E+00  0.5116E+00  0.3477E+00  0.3476E+00
      1.926  0.4956E+00  0.4958E+00  0.3866E+00  0.3866E+00
      2.005  0.2128E+00  0.2129E+00  0.4033E+00  0.4033E+00
      2.084  0.9952E-01  0.9947E-01  0.4111E+00  0.4111E+00
      2.162  0.2269E+00  0.2265E+00  0.4290E+00  0.4289E+00
      2.241  0.7560E+00  0.7549E+00  0.4884E+00  0.4882E+00
      2.319  0.1439E+01  0.1438E+01  0.6014E+00  0.6012E+00
      2.398  0.1334E+01  0.1335E+01  0.7063E+00  0.7061E+00
      2.476  0.8720E+00  0.8722E+00  0.7748E+00  0.7746E+00
      2.555  0.8754E+00  0.8743E+00  0.8435E+00  0.8433E+00
      2.633  0.1124E+01  0.1124E+01  0.9318E+00  0.9316E+00
      2.712  0.8649E+00  0.8672E+00  0.9999E+00  0.9999E+00
      2.791  0.9139E+00  0.9152E+00  0.1072E+01  0.1072E+01
      2.869  0.1624E+01  0.1622E+01  0.1199E+01  0.1199E+01
      2.948  0.2636E+01  0.2632E+01  0.1406E+01  0.1406E+01
      3.026  0.3232E+01  0.3231E+01  0.1661E+01  0.1660E+01
      3.105  0.2927E+01  0.2928E+01  0.1890E+01  0.1890E+01
      3.183  0.3291E+01  0.3293E+01  0.2149E+01  0.2149E+01
      3.262  0.3514E+01  0.3514E+01  0.2425E+01  0.2425E+01
      3.340  0.3593E+01  0.3591E+01  0.2707E+01  0.2707E+01
      3.419  0.3539E+01  0.3538E+01  0.2986E+01  0.2985E+01
      3.498  0.3034E+01  0.3034E+01  0.3224E+01  0.3224E+01
      3.576  0.2864E+01  0.2864E+01  0.3449E+01  0.3449E+01
      3.655  0.2841E+01  0.2842E+01  0.3673E+01  0.3672E+01
      3.733  0.3643E+01  0.3643E+01  0.3959E+01  0.3959E+01
      3.812  0.4484E+01  0.4486E+01  0.4312E+01  0.4311E+01
      3.890  0.3010E+01  0.3012E+01  0.4548E+01  0.4548E+01
      3.969  0.2160E+01  0.2161E+01  0.4718E+01  0.4718E+01
      4.047  0.1895E+01  0.1894E+01  0.4867E+01  0.4867E+01
      4.126  0.1942E+01  0.1940E+01  0.5020E+01  0.5020E+01
      4.205  0.2782E+01  0.2781E+01  0.5239E+01  0.5239E+01
      4.283  0.3400E+01  0.3401E+01  0.5506E+01  0.5506E+01
      4.362  0.3390E+01  0.3391E+01  0.5773E+01  0.5773E+01
      4.440  0.3077E+01  0.3077E+01  0.6014E+01  0.6014E+01
      4.519  0.3077E+01  0.3076E+01  0.6256E+01  0.6256E+01
      4.597  0.2647E+01  0.2646E+01  0.6464E+01  0.6464E+01
      4.676  0.2941E+01  0.2939E+01  0.6695E+01  0.6695E+01
      4.754  0.4428E+01  0.4427E+01  0.7044E+01  0.7043E+01
      4.833  0.5528E+01  0.5528E+01  0.7478E+01  0.7478E+01
      4.912  0.4464E+01  0.4467E+01  0.7829E+01  0.7829E+01
      4.990  0.2545E+01  0.2545E+01  0.8029E+01  0.8029E+01
      5.069  0.2485E+01  0.2483E+01  0.8225E+01  0.8224E+01
      5.147  0.4295E+01  0.4290E+01  0.8562E+01  0.8561E+01
      5.226  0.6308E+01  0.6307E+01  0.9058E+01  0.9057E+01
      5.304  0.5788E+01  0.5792E+01  0.9513E+01  0.9513E+01
      5.383  0.4385E+01  0.4386E+01  0.9858E+01  0.9857E+01
      5.461  0.4217E+01  0.4215E+01  0.1019E+02  0.1019E+02
      5.540  0.5367E+01  0.5363E+01  0.1061E+02  0.1061E+02
      5.619  0.5974E+01  0.5975E+01  0.1108E+02  0.1108E+02
      5.697  0.4805E+01  0.4807E+01  0.1146E+02  0.1146E+02
      5.776  0.3410E+01  0.3413E+01  0.1173E+02  0.1173E+02
      5.854  0.2821E+01  0.2821E+01  0.1195E+02  0.1195E+02
      5.933  0.3851E+01  0.3850E+01  0.1225E+02  0.1225E+02
      6.011  0.4465E+01  0.4466E+01  0.1260E+02  0.1260E+02
      6.090  0.3530E+01  0.3532E+01  0.1288E+02  0.1288E+02
      6.168  0.3082E+01  0.3083E+01  0.1312E+02  0.1312E+02
      6.247  0.2817E+01  0.2817E+01  0.1334E+02  0.1334E+02
      6.326  0.2192E+01  0.2192E+01  0.1352E+02  0.1352E+02
      6.404  0.2616E+01  0.2613E+01  0.1372E+02  0.1372E+02
      6.483  0.4653E+01  0.4651E+01  0.1409E+02  0.1409E+02
      6.561  0.5013E+01  0.5014E+01  0.1448E+02  0.1448E+02
      6.640  0.4536E+01  0.4537E+01  0.1484E+02  0.1484E+02
      6.718  0.4089E+01  0.4090E+01  0.1516E+02  0.1516E+02
      6.797  0.3510E+01  0.3510E+01  0.1544E+02  0.1544E+02
      6.875  0.2589E+01  0.2590E+01  0.1564E+02  0.1564E+02
      6.954  0.2324E+01  0.2324E+01  0.1582E+02  0.1582E+02
      7.033  0.2620E+01  0.2620E+01  0.1603E+02  0.1603E+02
      7.111  0.3082E+01  0.3081E+01  0.1627E+02  0.1627E+02
      7.190  0.3400E+01  0.3399E+01  0.1654E+02  0.1654E+02
      7.268  0.3185E+01  0.3185E+01  0.1679E+02  0.1679E+02
      7.347  0.4307E+01  0.4305E+01  0.1713E+02  0.1713E+02
      7.425  0.4790E+01  0.4792E+01  0.1750E+02  0.1750E+02
      7.504  0.2882E+01  0.2884E+01  0.1773E+02  0.1773E+02
      7.582  0.1660E+01  0.1661E+01  0.1786E+02  0.1786E+02
      7.661  0.2078E+01  0.2077E+01  0.1802E+02  0.1802E+02
      7.740  0.3783E+01  0.3780E+01  0.1832E+02  0.1832E+02
      7.818  0.5664E+01  0.5663E+01  0.1877E+02  0.1877E+02
      7.897  0.5717E+01  0.5718E+01  0.1922E+02  0.1922E+02
      7.975  0.4838E+01  0.4839E+01  0.1960E+02  0.1960E+02
      8.054  0.4336E+01  0.4337E+01  0.1994E+02  0.1994E+02
      8.132  0.3162E+01  0.3163E+01  0.2019E+02  0.2019E+02
      8.211  0.2639E+01  0.2638E+01  0.2039E+02  0.2039E+02
      8.289  0.3079E+01  0.3078E+01  0.2064E+02  0.2064E+02
      8.368  0.2626E+01  0.2627E+01  0.2084E+02  0.2084E+02
      8.447  0.1432E+01  0.1434E+01  0.2096E+02  0.2096E+02
      8.525  0.6976E+00  0.6978E+00  0.2101E+02  0.2101E+02
      8.604  0.9224E+00  0.9217E+00  0.2108E+02  0.2108E+02
      8.682  0.1618E+01  0.1617E+01  0.2121E+02  0.2121E+02
      8.761  0.1307E+01  0.1307E+01  0.2131E+02  0.2131E+02
      8.839  0.8747E+00  0.8747E+00  0.2138E+02  0.2138E+02
      8.918  0.8577E+00  0.8573E+00  0.2145E+02  0.2145E+02
      8.996  0.7595E+00  0.7596E+00  0.2151E+02  0.2151E+02
      9.075  0.4201E+00  0.4208E+00  0.2154E+02  0.2154E+02
      9.154  0.1281E+00  0.1285E+00  0.2155E+02  0.2155E+02
      9.232  0.2937E-01  0.2946E-01  0.2155E+02  0.2155E+02
      9.311  0.5695E-02  0.5714E-02  0.2156E+02  0.2156E+02
      9.389  0.0000E+00  0.0000E+00  0.2156E+02  0.2156E+02
      9.468  0.1689E-02  0.1690E-02  0.2156E+02  0.2156E+02
      9.546  0.6433E-02  0.6434E-02  0.2156E+02  0.2156E+02
      9.625  0.3079E-01  0.3080E-01  0.2156E+02  0.2156E+02
      9.703  0.1445E+00  0.1445E+00  0.2157E+02  0.2157E+02
      9.782  0.6195E+00  0.6196E+00  0.2162E+02  0.2162E+02
      9.861  0.1892E+01  0.1892E+01  0.2177E+02  0.2177E+02
      9.939  0.2591E+01  0.2591E+01  0.2197E+02  0.2197E+02
     10.018  0.1325E+01  0.1325E+01  0.2207E+02  0.2207E+02
     10.096  0.3753E+00  0.3752E+00  0.2210E+02  0.2210E+02
     10.175  0.1395E+00  0.1393E+00  0.2212E+02  0.2212E+02
     10.253  0.2697E+00  0.2691E+00  0.2214E+02  0.2214E+02
     10.332  0.7662E+00  0.7652E+00  0.2220E+02  0.2220E+02
     10.410  0.1034E+01  0.1034E+01  0.2228E+02  0.2228E+02
     10.489  0.5199E+00  0.5209E+00  0.2232E+02  0.2232E+02
     10.568  0.1416E+00  0.1420E+00  0.2233E+02  0.2233E+02
     10.646  0.3136E-01  0.3144E-01  0.2233E+02  0.2233E+02
     10.725  0.7192E-02  0.7207E-02  0.2233E+02  0.2233E+02
     10.803  0.2235E-02  0.2228E-02  0.2233E+02  0.2233E+02
     10.882  0.1085E-01  0.1082E-01  0.2233E+02  0.2233E+02
     10.960  0.5126E-01  0.5110E-01  0.2234E+02  0.2234E+02
     11.039  0.2291E+00  0.2285E+00  0.2236E+02  0.2236E+02
     11.117  0.8136E+00  0.8120E+00  0.2242E+02  0.2242E+02
     11.196  0.1569E+01  0.1568E+01  0.2254E+02  0.2254E+02
     11.275  0.1337E+01  0.1339E+01  0.2265E+02  0.2265E+02
     11.353  0.8741E+00  0.8753E+00  0.2272E+02  0.2272E+02
     11.432  0.5394E+00  0.5393E+00  0.2276E+02  0.2276E+02
     11.510  0.2175E+00  0.2172E+00  0.2278E+02  0.2278E+02
     11.589  0.1930E+00  0.1925E+00  0.2279E+02  0.2279E+02
     11.667  0.5536E+00  0.5525E+00  0.2284E+02  0.2284E+02
     11.746  0.1043E+01  0.1042E+01  0.2292E+02  0.2292E+02
     11.824  0.7396E+00  0.7407E+00  0.2298E+02  0.2298E+02
     11.903  0.2387E+00  0.2393E+00  0.2299E+02  0.2299E+02
     11.982  0.5755E-01  0.5770E-01  0.2300E+02  0.2300E+02
     12.060  0.2288E-01  0.2292E-01  0.2300E+02  0.2300E+02
     12.139  0.5234E-01  0.5236E-01  0.2301E+02  0.2301E+02
     12.217  0.2269E+00  0.2269E+00  0.2302E+02  0.2302E+02
     12.296  0.7188E+00  0.7189E+00  0.2308E+02  0.2308E+02
     12.374  0.1050E+01  0.1050E+01  0.2316E+02  0.2316E+02
     12.453  0.5761E+00  0.5759E+00  0.2321E+02  0.2321E+02
     12.531  0.2089E+00  0.2087E+00  0.2322E+02  0.2322E+02
     12.610  0.2546E+00  0.2538E+00  0.2324E+02  0.2324E+02
     12.689  0.7244E+00  0.7227E+00  0.2330E+02  0.2330E+02
     12.767  0.1165E+01  0.1165E+01  0.2339E+02  0.2339E+02
     12.846  0.1024E+01  0.1024E+01  0.2347E+02  0.2347E+02
     12.924  0.1154E+01  0.1153E+01  0.2356E+02  0.2356E+02
     13.003  0.8969E+00  0.8987E+00  0.2363E+02  0.2363E+02
     13.081  0.3204E+00  0.3217E+00  0.2366E+02  0.2366E+02
     13.160  0.7563E-01  0.7598E-01  0.2367E+02  0.2367E+02
     13.239  0.1742E-01  0.1749E-01  0.2367E+02  0.2367E+02
     13.317  0.5935E-02  0.5907E-02  0.2367E+02  0.2367E+02
     13.396  0.2844E-01  0.2831E-01  0.2367E+02  0.2367E+02
     13.474  0.1244E+00  0.1239E+00  0.2368E+02  0.2368E+02
     13.553  0.4185E+00  0.4173E+00  0.2371E+02  0.2371E+02
     13.631  0.8028E+00  0.8018E+00  0.2378E+02  0.2377E+02
     13.710  0.1151E+01  0.1149E+01  0.2387E+02  0.2387E+02
     13.788  0.1715E+01  0.1715E+01  0.2400E+02  0.2400E+02
     13.867  0.1776E+01  0.1777E+01  0.2414E+02  0.2414E+02
     13.946  0.1064E+01  0.1065E+01  0.2422E+02  0.2422E+02
     14.024  0.9620E+00  0.9602E+00  0.2430E+02  0.2430E+02
     14.103  0.1094E+01  0.1095E+01  0.2438E+02  0.2438E+02
     14.181  0.5587E+00  0.5612E+00  0.2443E+02  0.2443E+02
     14.260  0.1530E+00  0.1540E+00  0.2444E+02  0.2444E+02
     14.338  0.3772E-01  0.3793E-01  0.2444E+02  0.2444E+02
     14.417  0.2539E-01  0.2538E-01  0.2445E+02  0.2445E+02
     14.495  0.8159E-01  0.8134E-01  0.2445E+02  0.2445E+02
     14.574  0.2883E+00  0.2876E+00  0.2448E+02  0.2448E+02
     14.653  0.5255E+00  0.5254E+00  0.2452E+02  0.2452E+02
     14.731  0.3537E+00  0.3544E+00  0.2454E+02  0.2454E+02
     14.810  0.1125E+00  0.1129E+00  0.2455E+02  0.2455E+02
     14.888  0.3538E-01  0.3546E-01  0.2456E+02  0.2456E+02
     14.967  0.4862E-01  0.4860E-01  0.2456E+02  0.2456E+02
     15.045  0.1357E+00  0.1356E+00  0.2457E+02  0.2457E+02
     15.124  0.2202E+00  0.2202E+00  0.2459E+02  0.2459E+02
     15.202  0.3031E+00  0.3030E+00  0.2461E+02  0.2461E+02
     15.281  0.8303E+00  0.8299E+00  0.2468E+02  0.2468E+02
     15.360  0.1805E+01  0.1805E+01  0.2482E+02  0.2482E+02
     15.438  0.1808E+01  0.1808E+01  0.2496E+02  0.2496E+02
     15.517  0.9761E+00  0.9758E+00  0.2504E+02  0.2504E+02
     15.595  0.9415E+00  0.9399E+00  0.2511E+02  0.2511E+02
     15.674  0.1525E+01  0.1524E+01  0.2523E+02  0.2523E+02
     15.752  0.1240E+01  0.1242E+01  0.2533E+02  0.2533E+02
     15.831  0.5840E+00  0.5840E+00  0.2537E+02  0.2537E+02
     15.909  0.6470E+00  0.6442E+00  0.2543E+02  0.2543E+02
     15.988  0.1064E+01  0.1063E+01  0.2551E+02  0.2551E+02
     16.067  0.7473E+00  0.7506E+00  0.2557E+02  0.2557E+02
     16.145  0.2419E+00  0.2437E+00  0.2559E+02  0.2559E+02
     16.224  0.6609E-01  0.6654E-01  0.2559E+02  0.2559E+02
     16.302  0.6092E-01  0.6096E-01  0.2560E+02  0.2560E+02
     16.381  0.2216E+00  0.2214E+00  0.2561E+02  0.2561E+02
     16.459  0.8156E+00  0.8149E+00  0.2568E+02  0.2568E+02
     16.538  0.1681E+01  0.1680E+01  0.2581E+02  0.2581E+02
     16.616  0.1543E+01  0.1542E+01  0.2593E+02  0.2593E+02
     16.695  0.8904E+00  0.8913E+00  0.2600E+02  0.2600E+02
     16.774  0.3361E+00  0.3374E+00  0.2603E+02  0.2603E+02
     16.852  0.8604E-01  0.8648E-01  0.2604E+02  0.2604E+02
     16.931  0.1899E-01  0.1909E-01  0.2604E+02  0.2604E+02
     17.009  0.2373E-01  0.2379E-01  0.2604E+02  0.2604E+02
     17.088  0.9182E-01  0.9197E-01  0.2605E+02  0.2605E+02
     17.166  0.3182E+00  0.3185E+00  0.2607E+02  0.2607E+02
     17.245  0.5749E+00  0.5750E+00  0.2612E+02  0.2612E+02
     17.323  0.5205E+00  0.5202E+00  0.2616E+02  0.2616E+02
     17.402  0.5674E+00  0.5672E+00  0.2620E+02  0.2620E+02
     17.481  0.4848E+00  0.4847E+00  0.2624E+02  0.2624E+02
     17.559  0.1900E+00  0.1899E+00  0.2625E+02  0.2625E+02
     17.638  0.5974E-01  0.5969E-01  0.2626E+02  0.2626E+02
     17.716  0.7848E-01  0.7829E-01  0.2627E+02  0.2627E+02
     17.795  0.3105E+00  0.3097E+00  0.2629E+02  0.2629E+02
     17.873  0.1110E+01  0.1108E+01  0.2638E+02  0.2638E+02
     17.952  0.2182E+01  0.2182E+01  0.2655E+02  0.2655E+02
     18.030  0.1944E+01  0.1945E+01  0.2670E+02  0.2670E+02
     18.109  0.1489E+01  0.1489E+01  0.2682E+02  0.2682E+02
     18.188  0.9499E+00  0.9514E+00  0.2689E+02  0.2689E+02
     18.266  0.3224E+00  0.3233E+00  0.2692E+02  0.2692E+02
     18.345  0.8244E-01  0.8276E-01  0.2693E+02  0.2693E+02
     18.423  0.6966E-01  0.7002E-01  0.2693E+02  0.2693E+02
     18.502  0.2128E+00  0.2138E+00  0.2695E+02  0.2695E+02
     18.580  0.4944E+00  0.4952E+00  0.2699E+02  0.2699E+02
     18.659  0.4645E+00  0.4635E+00  0.2702E+02  0.2702E+02
     18.737  0.2951E+00  0.2943E+00  0.2705E+02  0.2705E+02
     18.816  0.5765E+00  0.5764E+00  0.2709E+02  0.2709E+02
     18.895  0.1403E+01  0.1403E+01  0.2720E+02  0.2720E+02
     18.973  0.1827E+01  0.1827E+01  0.2735E+02  0.2735E+02
     19.052  0.1198E+01  0.1198E+01  0.2744E+02  0.2744E+02
     19.130  0.4118E+00  0.4118E+00  0.2747E+02  0.2747E+02
     19.209  0.1199E+00  0.1200E+00  0.2748E+02  0.2748E+02
     19.287  0.1183E+00  0.1188E+00  0.2749E+02  0.2749E+02
     19.366  0.3376E+00  0.3386E+00  0.2752E+02  0.2752E+02
     19.444  0.5342E+00  0.5344E+00  0.2756E+02  0.2756E+02
     19.523  0.3364E+00  0.3365E+00  0.2759E+02  0.2759E+02
     19.602  0.2133E+00  0.2170E+00  0.2760E+02  0.2760E+02
     19.680  0.4338E+00  0.4426E+00  0.2764E+02  0.2764E+02
     19.759  0.7837E+00  0.7873E+00  0.2770E+02  0.2770E+02
     19.837  0.1071E+01  0.1076E+01  0.2778E+02  0.2778E+02
     19.916  0.1279E+01  0.1277E+01  0.2788E+02  0.2789E+02
     19.994  0.7335E+00  0.7202E+00  0.2794E+02  0.2794E+02
     20.073  0.2169E+00  0.2110E+00  0.2796E+02  0.2796E+02
     20.151  0.4836E-01  0.4692E-01  0.2796E+02  0.2796E+02
     20.230  0.9698E-02  0.9388E-02  0.2796E+02  0.2796E+02
     20.309  0.0000E+00  0.0000E+00  0.2796E+02  0.2796E+02
     20.387  0.0000E+00  0.0000E+00  0.2796E+02  0.2796E+02
     20.466  0.0000E+00  0.0000E+00  0.2796E+02  0.2796E+02
     20.544  0.0000E+00  0.0000E+00  0.2796E+02  0.2796E+02
     20.623  0.0000E+00  0.0000E+00  0.2796E+02  0.2796E+02
     20.701  0.0000E+00  0.0000E+00  0.2796E+02  0.2796E+02
     20.780  0.0000E+00  0.0000E+00  0.2796E+02  0.2796E+02
     20.858  0.0000E+00  0.0000E+00  0.2796E+02  0.2796E+02
     20.937  0.0000E+00  0.0000E+00  0.2796E+02  0.2796E+02
     21.016  0.0000E+00  0.0000E+00  0.2796E+02  0.2796E+02
     21.094  0.1032E-03  0.1319E-03  0.2796E+02  0.2796E+02
     21.173  0.3929E-03  0.5020E-03  0.2796E+02  0.2796E+02
     21.251  0.1882E-02  0.2401E-02  0.2796E+02  0.2796E+02
     21.330  0.8848E-02  0.1122E-01  0.2796E+02  0.2796E+02
     21.408  0.3830E-01  0.4724E-01  0.2797E+02  0.2797E+02
     21.487  0.1206E+00  0.1362E+00  0.2798E+02  0.2798E+02
     21.565  0.1745E+00  0.1684E+00  0.2799E+02  0.2799E+02
     21.644  0.9333E-01  0.7878E-01  0.2800E+02  0.2800E+02
     21.723  0.2612E-01  0.2083E-01  0.2800E+02  0.2800E+02
     21.801  0.5823E-02  0.4575E-02  0.2800E+02  0.2800E+02
     21.880  0.1228E-02  0.9621E-03  0.2800E+02  0.2800E+02
     21.958  0.0000E+00  0.0000E+00  0.2800E+02  0.2800E+02
     22.037  0.0000E+00  0.0000E+00  0.2800E+02  0.2800E+02
     22.115  0.0000E+00  0.0000E+00  0.2800E+02  0.2800E+02
     22.194  0.0000E+00  0.0000E+00  0.2800E+02  0.2800E+02
     22.272  0.0000E+00  0.0000E+00  0.2800E+02  0.2800E+02
     22.351  0.0000E+00  0.0000E+00  0.2800E+02  0.2800E+02
     22.430  0.0000E+00  0.0000E+00  0.2800E+02  0.2800E+02
     22.508  0.0000E+00  0.0000E+00  0.2800E+02  0.2800E+02
     22.587  0.0000E+00  0.0000E+00  0.2800E+02  0.2800E+02
     22.58668329     -0.98016105  301      9.95419710      1.00000000
     -0.980  0.0000E+00  0.0000E+00  0.0000E+00  0.0000E+00  0.0000E+00  0.0000E+00  0.0000E+00  0.0000E+00  0.0000E+00  0.0000E+00  0.0000E+00  0.0000E+00  0.0000E+00  0.0000E+00  0.0000E+00  0.0000E+00  0.0000E+00  0.0000E+00
     -0.902  0.0000E+00  0.0000E+00  0.0000E+00  0.0000E+00  0.0000E+00  0.0000E+00  0.0000E+00  0.0000E+00  0.0000E+00  0.0000E+00  0.0000E+00  0.0000E+00  0.0000E+00  0.0000E+00  0.0000E+00  0.0000E+00  0.0000E+00  0.0000E+00
     -0.823  0.0000E+00  0.0000E+00  0.0000E+00  0.0000E+00  0.0000E+00  0.0000E+00  0.0000E+00  0.0000E+00  0.0000E+00  0.0000E+00  0.0000E+00  0.0000E+00  0.0000E+00  0.0000E+00  0.0000E+00  0.0000E+00  0.0000E+00  0.0000E+00
     -0.744  0.0000E+00  0.0000E+00  0.0000E+00  0.0000E+00  0.0000E+00  0.0000E+00  0.0000E+00  0.0000E+00  0.0000E+00  0.0000E+00  0.0000E+00  0.0000E+00  0.0000E+00  0.0000E+00  0.0000E+00  0.0000E+00  0.0000E+00  0.0000E+00
     -0.666  0.0000E+00  0.0000E+00  0.0000E+00  0.0000E+00  0.0000E+00  0.0000E+00  0.0000E+00  0.0000E+00  0.0000E+00  0.0000E+00  0.0000E+00  0.0000E+00  0.0000E+00  0.0000E+00  0.0000E+00  0.0000E+00  0.0000E+00  0.0000E+00
     -0.587  0.0000E+00  0.0000E+00  0.0000E+00  0.0000E+00  0.0000E+00  0.0000E+00  0.0000E+00  0.0000E+00  0.0000E+00  0.0000E+00  0.0000E+00  0.0000E+00  0.0000E+00  0.0000E+00  0.0000E+00  0.0000E+00  0.0000E+00  0.0000E+00
     -0.509  0.0000E+00  0.0000E+00  0.0000E+00  0.0000E+00  0.0000E+00  0.0000E+00  0.0000E+00  0.0000E+00  0.0000E+00  0.0000E+00  0.0000E+00  0.0000E+00  0.0000E+00  0.0000E+00  0.0000E+00  0.0000E+00  0.0000E+00  0.0000E+00
     -0.430  0.0000E+00  0.0000E+00  0.0000E+00  0.0000E+00  0.0000E+00  0.0000E+00  0.0000E+00  0.0000E+00  0.0000E+00  0.0000E+00  0.0000E+00  0.0000E+00  0.0000E+00  0.0000E+00  0.0000E+00  0.0000E+00  0.0000E+00  0.0000E+00
     -0.352  0.1033E-04  0.1032E-04  0.5646E-07  0.5638E-07  0.5646E-07  0.5638E-07  0.5646E-07  0.5638E-07  0.4534E-08  0.4526E-08  0.4534E-08  0.4526E-08  0.3541E-23  0.5611E-22  0.4534E-08  0.4526E-08  0.3541E-23  0.5611E-22
     -0.273  0.3936E-04  0.3930E-04  0.2151E-06  0.2148E-06  0.2151E-06  0.2148E-06  0.2151E-06  0.2148E-06  0.1727E-07  0.1724E-07  0.1727E-07  0.1724E-07  0.1349E-22  0.2137E-21  0.1727E-07  0.1724E-07  0.1349E-22  0.2137E-21
     -0.195  0.1888E-03  0.1885E-03  0.1032E-05  0.1030E-05  0.1032E-05  0.1030E-05  0.1032E-05  0.1030E-05  0.8286E-07  0.8271E-07  0.8286E-07  0.8271E-07  0.6470E-22  0.1025E-20  0.8286E-07  0.8271E-07  0.6470E-22  0.1025E-20
     -0.116  0.8950E-03  0.8936E-03  0.4890E-05  0.4883E-05  0.4890E-05  0.4883E-05  0.4890E-05  0.4883E-05  0.3928E-06  0.3920E-06  0.3928E-06  0.3920E-06  0.3067E-21  0.4860E-20  0.3928E-06  0.3920E-06  0.3067E-21  0.4860E-20
     -0.037  0.4014E-02  0.4008E-02  0.2193E-04  0.2190E-04  0.2193E-04  0.2190E-04  0.2193E-04  0.2190E-04  0.1761E-05  0.1758E-05  0.1761E-05  0.1758E-05  0.1376E-20  0.2180E-19  0.1761E-05  0.1758E-05  0.1376E-20  0.2180E-19
      0.041  0.1434E-01  0.1433E-01  0.7838E-04  0.7830E-04  0.7838E-04  0.7830E-04  0.7838E-04  0.7830E-04  0.6295E-05  0.6286E-05  0.6295E-05  0.6286E-05  0.4916E-20  0.7793E-19  0.6295E-05  0.6286E-05  0.4916E-20  0.7793E-19
      0.120  0.2682E-01  0.2681E-01  0.1465E-03  0.1465E-03  0.1465E-03  0.1465E-03  0.1465E-03  0.1465E-03  0.1177E-04  0.1176E-04  0.1177E-04  0.1176E-04  0.9190E-20  0.1458E-18  0.1177E-04  0.1176E-04  0.9190E-20  0.1458E-18
      0.198  0.1854E-01  0.1856E-01  0.1013E-03  0.1014E-03  0.1013E-03  0.1014E-03  0.1013E-03  0.1014E-03  0.8138E-05  0.8141E-05  0.8138E-05  0.8141E-05  0.6355E-20  0.1009E-18  0.8138E-05  0.8141E-05  0.6355E-20  0.1009E-18
      0.277  0.5912E-02  0.5919E-02  0.3267E-04  0.3271E-04  0.3267E-04  0.3271E-04  0.3267E-04  0.3271E-04  0.2664E-05  0.2666E-05  0.2664E-05  0.2666E-05  0.6986E-07  0.6977E-07  0.2664E-05  0.2666E-05  0.6986E-07  0.6977E-07
      0.355  0.1456E-02  0.1458E-02  0.9362E-05  0.9370E-05  0.9362E-05  0.9370E-05  0.9362E-05  0.9370E-05  0.9036E-06  0.9037E-06  0.9036E-06  0.9037E-06  0.2661E-06  0.2658E-06  0.9036E-06  0.9037E-06  0.2661E-06  0.2658E-06
      0.434  0.7507E-03  0.7504E-03  0.1085E-04  0.1084E-04  0.1085E-04  0.1084E-04  0.1085E-04  0.1084E-04  0.1599E-05  0.1597E-05  0.1599E-05  0.1597E-05  0.1277E-05  0.1276E-05  0.1599E-05  0.1597E-05  0.1277E-05  0.1276E-05
      0.512  0.2192E-02  0.2189E-02  0.4402E-04  0.4396E-04  0.4402E-04  0.4396E-04  0.4402E-04  0.4396E-04  0.6994E-05  0.6982E-05  0.6994E-05  0.6982E-05  0.6067E-05  0.6059E-05  0.6994E-05  0.6982E-05  0.6067E-05  0.6059E-05
      0.591  0.9926E-02  0.9912E-02  0.1993E-03  0.1991E-03  0.1993E-03  0.1991E-03  0.1993E-03  0.1991E-03  0.3167E-04  0.3162E-04  0.3167E-04  0.3162E-04  0.2747E-04  0.2744E-04  0.3167E-04  0.3162E-04  0.2747E-04  0.2744E-04
      0.670  0.3678E-01  0.3674E-01  0.7387E-03  0.7380E-03  0.7387E-03  0.7380E-03  0.7387E-03  0.7380E-03  0.1174E-03  0.1172E-03  0.1174E-03  0.1172E-03  0.1018E-03  0.1017E-03  0.1174E-03  0.1172E-03  0.1018E-03  0.1017E-03
      0.748  0.7480E-01  0.7477E-01  0.1502E-02  0.1502E-02  0.1502E-02  0.1502E-02  0.1502E-02  0.1502E-02  0.2386E-03  0.2385E-03  0.2386E-03  0.2385E-03  0.2070E-03  0.2070E-03  0.2386E-03  0.2385E-03  0.2070E-03  0.2070E-03
      0.827  0.5693E-01  0.5697E-01  0.1144E-02  0.1144E-02  0.1144E-02  0.1144E-02  0.1144E-02  0.1144E-02  0.1820E-03  0.1820E-03  0.1820E-03  0.1820E-03  0.1576E-03  0.1577E-03  0.1820E-03  0.1820E-03  0.1576E-03  0.1577E-03
      0.905  0.1912E-01  0.1915E-01  0.3849E-03  0.3854E-03  0.3849E-03  0.3854E-03  0.3849E-03  0.3854E-03  0.6218E-04  0.6223E-04  0.6218E-04  0.6223E-04  0.5288E-04  0.5295E-04  0.6218E-04  0.6223E-04  0.5288E-04  0.5295E-04
      0.984  0.4796E-02  0.4801E-02  0.1003E-03  0.1004E-03  0.1003E-03  0.1004E-03  0.1003E-03  0.1004E-03  0.2087E-04  0.2087E-04  0.2087E-04  0.2087E-04  0.1302E-04  0.1304E-04  0.2087E-04  0.2087E-04  0.1302E-04  0.1304E-04
      1.062  0.2485E-02  0.2484E-02  0.6882E-04  0.6877E-04  0.6882E-04  0.6877E-04  0.6882E-04  0.6877E-04  0.3448E-04  0.3442E-04  0.3448E-04  0.3442E-04  0.5660E-05  0.5660E-05  0.3448E-04  0.3442E-04  0.5660E-05  0.5660E-05
      1.141  0.7035E-02  0.7023E-02  0.2282E-03  0.2279E-03  0.2282E-03  0.2279E-03  0.2282E-03  0.2279E-03  0.1445E-03  0.1442E-03  0.1445E-03  0.1442E-03  0.1387E-04  0.1385E-04  0.1445E-03  0.1442E-03  0.1387E-04  0.1385E-04
      1.219  0.2769E-01  0.2765E-01  0.8984E-03  0.8974E-03  0.8984E-03  0.8974E-03  0.8984E-03  0.8974E-03  0.5691E-03  0.5682E-03  0.5691E-03  0.5682E-03  0.5458E-04  0.5453E-04  0.5691E-03  0.5682E-03  0.5458E-04  0.5453E-04
      1.298  0.6559E-01  0.6555E-01  0.2128E-02  0.2127E-02  0.2128E-02  0.2127E-02  0.2128E-02  0.2127E-02  0.1348E-02  0.1347E-02  0.1348E-02  0.1347E-02  0.1293E-03  0.1292E-03  0.1348E-02  0.1347E-02  0.1293E-03  0.1292E-03
      1.377  0.6059E-01  0.6062E-01  0.1966E-02  0.1968E-02  0.1966E-02  0.1968E-02  0.1966E-02  0.1968E-02  0.1250E-02  0.1250E-02  0.1250E-02  0.1250E-02  0.1198E-03  0.1200E-03  0.1250E-02  0.1250E-02  0.1198E-03  0.1200E-03
      1.455  0.2326E-01  0.2329E-01  0.7569E-03  0.7580E-03  0.7569E-03  0.7580E-03  0.7569E-03  0.7580E-03  0.5024E-03  0.5028E-03  0.5024E-03  0.5028E-03  0.4727E-04  0.4734E-04  0.5024E-03  0.5028E-03  0.4727E-04  0.4734E-04
      1.534  0.7630E-02  0.7633E-02  0.2585E-03  0.2586E-03  0.2585E-03  0.2586E-03  0.2585E-03  0.2586E-03  0.2708E-03  0.2706E-03  0.2708E-03  0.2706E-03  0.2199E-04  0.2200E-04  0.2708E-03  0.2706E-03  0.2199E-04  0.2200E-04
      1.612  0.9686E-02  0.9673E-02  0.3614E-03  0.3609E-03  0.3614E-03  0.3609E-03  0.3614E-03  0.3609E-03  0.6571E-03  0.6558E-03  0.6571E-03  0.6558E-03  0.5496E-04  0.5492E-04  0.6571E-03  0.6558E-03  0.5496E-04  0.5492E-04
      1.691  0.2411E-01  0.2409E-01  0.9433E-03  0.9425E-03  0.9433E-03  0.9425E-03  0.9433E-03  0.9425E-03  0.1631E-02  0.1629E-02  0.1631E-02  0.1629E-02  0.2444E-03  0.2443E-03  0.1631E-02  0.1629E-02  0.2444E-03  0.2443E-03
      1.769  0.4021E-01  0.4020E-01  0.1749E-02  0.1749E-02  0.1749E-02  0.1749E-02  0.1749E-02  0.1749E-02  0.1814E-02  0.1815E-02  0.1814E-02  0.1815E-02  0.9955E-03  0.9949E-03  0.1814E-02  0.1815E-02  0.9955E-03  0.9949E-03
      1.848  0.6361E-01  0.6359E-01  0.3075E-02  0.3075E-02  0.3075E-02  0.3075E-02  0.3075E-02  0.3075E-02  0.1230E-02  0.1231E-02  0.1230E-02  0.1231E-02  0.2610E-02  0.2610E-02  0.1230E-02  0.1231E-02  0.2610E-02  0.2610E-02
      1.926  0.6175E-01  0.6176E-01  0.3062E-02  0.3063E-02  0.3062E-02  0.3063E-02  0.3062E-02  0.3063E-02  0.8070E-03  0.8072E-03  0.8070E-03  0.8072E-03  0.2785E-02  0.2786E-02  0.8070E-03  0.8072E-03  0.2785E-02  0.2786E-02
      2.005  0.2639E-01  0.2641E-01  0.1321E-02  0.1322E-02  0.1321E-02  0.1322E-02  0.1321E-02  0.1322E-02  0.4000E-03  0.3999E-03  0.4000E-03  0.3999E-03  0.1188E-02  0.1189E-02  0.4000E-03  0.3999E-03  0.1188E-02  0.1189E-02
      2.084  0.1173E-01  0.1172E-01  0.6218E-03  0.6216E-03  0.6218E-03  0.6216E-03  0.6218E-03  0.6216E-03  0.5656E-03  0.5644E-03  0.5656E-03  0.5644E-03  0.4357E-03  0.4358E-03  0.5656E-03  0.5644E-03  0.4357E-03  0.4358E-03
      2.162  0.2518E-01  0.2514E-01  0.1420E-02  0.1418E-02  0.1420E-02  0.1418E-02  0.1420E-02  0.1418E-02  0.2253E-02  0.2248E-02  0.2253E-02  0.2248E-02  0.6959E-03  0.6951E-03  0.2253E-02  0.2248E-02  0.6959E-03  0.6951E-03
      2.241  0.8280E-01  0.8268E-01  0.4663E-02  0.4658E-02  0.4663E-02  0.4658E-02  0.4663E-02  0.4658E-02  0.8242E-02  0.8224E-02  0.8242E-02  0.8224E-02  0.2171E-02  0.2169E-02  0.8242E-02  0.8224E-02  0.2171E-02  0.2169E-02
      2.319  0.1528E+00  0.1527E+00  0.8359E-02  0.8357E-02  0.8359E-02  0.8357E-02  0.8359E-02  0.8357E-02  0.1901E-01  0.1898E-01  0.1901E-01  0.1898E-01  0.3752E-02  0.3752E-02  0.1901E-01  0.1898E-01  0.3752E-02  0.3752E-02
      2.398  0.1299E+00  0.1299E+00  0.6500E-02  0.6505E-02  0.6500E-02  0.6505E-02  0.6500E-02  0.6505E-02  0.2574E-01  0.2572E-01  0.2574E-01  0.2572E-01  0.2697E-02  0.2701E-02  0.2574E-01  0.2572E-01  0.2697E-02  0.2701E-02
      2.476  0.7076E-01  0.7080E-01  0.2929E-02  0.2933E-02  0.2929E-02  0.2933E-02  0.2929E-02  0.2933E-02  0.2596E-01  0.2595E-01  0.2596E-01  0.2595E-01  0.1132E-02  0.1134E-02  0.2596E-01  0.2595E-01  0.1132E-02  0.1134E-02
      2.555  0.5548E-01  0.5543E-01  0.1757E-02  0.1756E-02  0.1757E-02  0.1756E-02  0.1757E-02  0.1756E-02  0.3531E-01  0.3525E-01  0.3531E-01  0.3525E-01  0.1022E-02  0.1025E-02  0.3531E-01  0.3525E-01  0.1022E-02  0.1025E-02
      2.633  0.6254E-01  0.6255E-01  0.1716E-02  0.1717E-02  0.1716E-02  0.1717E-02  0.1716E-02  0.1717E-02  0.4873E-01  0.4872E-01  0.4873E-01  0.4872E-01  0.3429E-02  0.3439E-02  0.4873E-01  0.4872E-01  0.3429E-02  0.3439E-02
      2.712  0.4194E-01  0.4204E-01  0.1235E-02  0.1237E-02  0.1235E-02  0.1237E-02  0.1235E-02  0.1237E-02  0.3232E-01  0.3240E-01  0.3232E-01  0.3240E-01  0.1405E-01  0.1409E-01  0.3232E-01  0.3240E-01  0.1405E-01  0.1409E-01
      2.791  0.3694E-01  0.3698E-01  0.1899E-02  0.1899E-02  0.1899E-02  0.1899E-02  0.1899E-02  0.1899E-02  0.1580E-01  0.1582E-01  0.1580E-01  0.1582E-01  0.4390E-01  0.4397E-01  0.1580E-01  0.1582E-01  0.4390E-01  0.4397E-01
      2.869  0.7587E-01  0.7579E-01  0.5012E-02  0.5007E-02  0.5012E-02  0.5007E-02  0.5012E-02  0.5007E-02  0.2536E-01  0.2529E-01  0.2536E-01  0.2529E-01  0.7160E-01  0.7160E-01  0.2536E-01  0.2529E-01  0.7160E-01  0.7160E-01
      2.948  0.1364E+00  0.1363E+00  0.9041E-02  0.9031E-02  0.9041E-02  0.9031E-02  0.9041E-02  0.9031E-02  0.6686E-01  0.6671E-01  0.6686E-01  0.6671E-01  0.7009E-01  0.7008E-01  0.6686E-01  0.6671E-01  0.7009E-01  0.7008E-01