   4   4   1   0
  0.2332868E+02  0.4535760E-09  0.4535760E-09  0.4535760E-09  0.5000000E-15
  1.000000000000000E-004
  CAR 
 unknown system                          
     15.12369326     -2.53973498  301      5.03080996      1.00000000
     -2.540  0.0000E+00  0.0000E+00  0.0000E+00  0.0000E+00
     -2.481  0.0000E+00  0.0000E+00  0.0000E+00  0.0000E+00
     -2.422  0.0000E+00  0.0000E+00  0.0000E+00  0.0000E+00
     -2.363  0.0000E+00  0.0000E+00  0.0000E+00  0.0000E+00
     -2.304  0.0000E+00  0.0000E+00  0.0000E+00  0.0000E+00
     -2.245  0.0000E+00  0.0000E+00  0.0000E+00  0.0000E+00
     -2.186  0.7819E-04  0.7822E-04  0.4604E-05  0.4606E-05
     -2.128  0.1756E-03  0.1756E-03  0.1494E-04  0.1495E-04
     -2.069  0.5693E-03  0.5696E-03  0.4846E-04  0.4848E-04
     -2.010  0.1841E-02  0.1842E-02  0.1569E-03  0.1569E-03
     -1.951  0.5904E-02  0.5906E-02  0.5045E-03  0.5047E-03
     -1.892  0.1842E-01  0.1843E-01  0.1589E-02  0.1590E-02
     -1.833  0.5293E-01  0.5295E-01  0.4705E-02  0.4707E-02
     -1.774  0.1219E+00  0.1220E+00  0.1188E-01  0.1189E-01
     -1.715  0.1792E+00  0.1792E+00  0.2243E-01  0.2244E-01
     -1.657  0.1436E+00  0.1436E+00  0.3089E-01  0.3089E-01
     -1.598  0.7024E-01  0.7022E-01  0.3502E-01  0.3502E-01
     -1.539  0.3034E-01  0.3033E-01  0.3681E-01  0.3681E-01
     -1.480  0.2560E-01  0.2560E-01  0.3832E-01  0.3832E-01
     -1.421  0.5719E-01  0.5720E-01  0.4168E-01  0.4169E-01
     -1.362  0.1580E+00  0.1581E+00  0.5099E-01  0.5099E-01
     -1.303  0.3634E+00  0.3635E+00  0.7241E-01  0.7241E-01
     -1.244  0.5369E+00  0.5369E+00  0.1040E+00  0.1040E+00
     -1.186  0.4327E+00  0.4326E+00  0.1295E+00  0.1295E+00
     -1.127  0.2117E+00  0.2116E+00  0.1420E+00  0.1420E+00
     -1.068  0.8878E-01  0.8876E-01  0.1472E+00  0.1472E+00
     -1.009  0.6651E-01  0.6651E-01  0.1511E+00  0.1511E+00
     -0.950  0.1319E+00  0.1319E+00  0.1589E+00  0.1589E+00
     -0.891  0.3103E+00  0.3103E+00  0.1771E+00  0.1771E+00
     -0.832  0.5168E+00  0.5168E+00  0.2076E+00  0.2076E+00
     -0.773  0.4829E+00  0.4829E+00  0.2361E+00  0.2361E+00
     -0.715  0.2666E+00  0.2666E+00  0.2518E+00  0.2518E+00
     -0.656  0.1329E+00  0.1328E+00  0.2596E+00  0.2596E+00
     -0.597  0.1340E+00  0.1339E+00  0.2675E+00  0.2675E+00
     -0.538  0.2497E+00  0.2496E+00  0.2822E+00  0.2822E+00
     -0.479  0.4289E+00  0.4287E+00  0.3074E+00  0.3074E+00
     -0.420  0.5941E+00  0.5940E+00  0.3425E+00  0.3425E+00
     -0.361  0.5829E+00  0.5829E+00  0.3768E+00  0.3768E+00
     -0.302  0.3721E+00  0.3722E+00  0.3987E+00  0.3987E+00
     -0.243  0.2520E+00  0.2520E+00  0.4135E+00  0.4135E+00
     -0.185  0.3864E+00  0.3860E+00  0.4363E+00  0.4363E+00
     -0.126  0.8305E+00  0.8298E+00  0.4852E+00  0.4851E+00
     -0.067  0.1343E+01  0.1342E+01  0.5643E+00  0.5641E+00
     -0.008  0.1416E+01  0.1416E+01  0.6477E+00  0.6476E+00
      0.051  0.1155E+01  0.1155E+01  0.7157E+00  0.7156E+00
      0.110  0.9605E+00  0.9596E+00  0.7723E+00  0.7721E+00
      0.169  0.1060E+01  0.1058E+01  0.8347E+00  0.8344E+00
      0.228  0.1258E+01  0.1257E+01  0.9088E+00  0.9084E+00
      0.286  0.1279E+01  0.1278E+01  0.9841E+00  0.9836E+00
      0.345  0.1476E+01  0.1472E+01  0.1071E+01  0.1070E+01
      0.404  0.2402E+01  0.2392E+01  0.1213E+01  0.1211E+01
      0.463  0.3587E+01  0.3578E+01  0.1424E+01  0.1422E+01
      0.522  0.4057E+01  0.4053E+01  0.1663E+01  0.1661E+01
      0.581  0.4159E+01  0.4153E+01  0.1908E+01  0.1905E+01
      0.640  0.4623E+01  0.4614E+01  0.2180E+01  0.2177E+01
      0.699  0.5261E+01  0.5253E+01  0.2490E+01  0.2486E+01
      0.757  0.5690E+01  0.5688E+01  0.2825E+01  0.2821E+01
      0.816  0.5575E+01  0.5581E+01  0.3153E+01  0.3150E+01
      0.875  0.5195E+01  0.5198E+01  0.3459E+01  0.3456E+01
      0.934  0.5123E+01  0.5119E+01  0.3761E+01  0.3758E+01
      0.993  0.5384E+01  0.5376E+01  0.4078E+01  0.4074E+01
      1.052  0.5207E+01  0.5212E+01  0.4385E+01  0.4381E+01
      1.111  0.4366E+01  0.4375E+01  0.4642E+01  0.4639E+01
      1.170  0.3935E+01  0.3935E+01  0.4874E+01  0.4871E+01
      1.228  0.4245E+01  0.4238E+01  0.5124E+01  0.5121E+01
      1.287  0.4889E+01  0.4879E+01  0.5412E+01  0.5408E+01
      1.346  0.5374E+01  0.5366E+01  0.5729E+01  0.5725E+01
      1.405  0.5784E+01  0.5778E+01  0.6070E+01  0.6065E+01
      1.464  0.6174E+01  0.6171E+01  0.6433E+01  0.6428E+01
      1.523  0.6691E+01  0.6684E+01  0.6828E+01  0.6822E+01
      1.582  0.7405E+01  0.7398E+01  0.7264E+01  0.7258E+01
      1.641  0.7501E+01  0.7504E+01  0.7706E+01  0.7700E+01
      1.699  0.7049E+01  0.7054E+01  0.8121E+01  0.8115E+01
      1.758  0.7376E+01  0.7364E+01  0.8555E+01  0.8549E+01
      1.817  0.8847E+01  0.8826E+01  0.9076E+01  0.9069E+01
      1.876  0.1010E+02  0.1009E+02  0.9671E+01  0.9663E+01
      1.935  0.1003E+02  0.1004E+02  0.1026E+02  0.1025E+02
      1.994  0.8886E+01  0.8901E+01  0.1079E+02  0.1078E+02
      2.053  0.7742E+01  0.7755E+01  0.1124E+02  0.1124E+02
      2.112  0.7016E+01  0.7024E+01  0.1165E+02  0.1165E+02
      2.171  0.6447E+01  0.6455E+01  0.1203E+02  0.1203E+02
      2.229  0.5591E+01  0.5598E+01  0.1236E+02  0.1236E+02
      2.288  0.5440E+01  0.5428E+01  0.1269E+02  0.1268E+02
      2.347  0.6261E+01  0.6244E+01  0.1305E+02  0.1305E+02
      2.406  0.7099E+01  0.7083E+01  0.1347E+02  0.1347E+02
      2.465  0.8030E+01  0.8013E+01  0.1395E+02  0.1394E+02
      2.524  0.8648E+01  0.8642E+01  0.1446E+02  0.1445E+02
      2.583  0.8320E+01  0.8331E+01  0.1495E+02  0.1494E+02
      2.642  0.6969E+01  0.6991E+01  0.1536E+02  0.1535E+02
      2.700  0.5544E+01  0.5562E+01  0.1568E+02  0.1568E+02
      2.759  0.5066E+01  0.5066E+01  0.1598E+02  0.1598E+02
      2.818  0.5726E+01  0.5712E+01  0.1632E+02  0.1631E+02
      2.877  0.6537E+01  0.6526E+01  0.1670E+02  0.1670E+02
      2.936  0.6977E+01  0.6972E+01  0.1711E+02  0.1711E+02
      2.995  0.6819E+01  0.6828E+01  0.1752E+02  0.1751E+02
      3.054  0.6394E+01  0.6396E+01  0.1789E+02  0.1789E+02
      3.113  0.7245E+01  0.7217E+01  0.1832E+02  0.1831E+02
      3.171  0.9112E+01  0.9085E+01  0.1886E+02  0.1885E+02
      3.230  0.9628E+01  0.9637E+01  0.1942E+02  0.1941E+02
      3.289  0.8245E+01  0.8278E+01  0.1991E+02  0.1990E+02
      3.348  0.6283E+01  0.6315E+01  0.2028E+02  0.2027E+02
      3.407  0.4727E+01  0.4755E+01  0.2056E+02  0.2055E+02
      3.466  0.3001E+01  0.3030E+01  0.2074E+02  0.2073E+02
      3.525  0.1479E+01  0.1497E+01  0.2082E+02  0.2082E+02
      3.584  0.8545E+00  0.8581E+00  0.2087E+02  0.2087E+02
      3.642  0.9492E+00  0.9455E+00  0.2093E+02  0.2093E+02
      3.701  0.1288E+01  0.1283E+01  0.2101E+02  0.2100E+02
      3.760  0.1603E+01  0.1600E+01  0.2110E+02  0.2110E+02
      3.819  0.1626E+01  0.1629E+01  0.2120E+02  0.2120E+02
      3.878  0.1180E+01  0.1188E+01  0.2127E+02  0.2127E+02
      3.937  0.7159E+00  0.7206E+00  0.2131E+02  0.2131E+02
      3.996  0.5283E+00  0.5292E+00  0.2134E+02  0.2134E+02
      4.055  0.5640E+00  0.5629E+00  0.2137E+02  0.2137E+02
      4.113  0.5979E+00  0.5986E+00  0.2141E+02  0.2141E+02
      4.172  0.4221E+00  0.4245E+00  0.2143E+02  0.2143E+02
      4.231  0.2700E+00  0.2710E+00  0.2145E+02  0.2145E+02
      4.290  0.3258E+00  0.3251E+00  0.2147E+02  0.2147E+02
      4.349  0.5126E+00  0.5117E+00  0.2150E+02  0.2150E+02
      4.408  0.5356E+00  0.5362E+00  0.2153E+02  0.2153E+02
      4.467  0.3644E+00  0.3651E+00  0.2155E+02  0.2155E+02
      4.526  0.3173E+00  0.3160E+00  0.2157E+02  0.2157E+02
      4.585  0.5623E+00  0.5583E+00  0.2160E+02  0.2160E+02
      4.643  0.9962E+00  0.9926E+00  0.2166E+02  0.2166E+02
      4.702  0.1095E+01  0.1097E+01  0.2173E+02  0.2173E+02
      4.761  0.8013E+00  0.8041E+00  0.2177E+02  0.2177E+02
      4.820  0.7512E+00  0.7500E+00  0.2182E+02  0.2182E+02
      4.879  0.1043E+01  0.1041E+01  0.2188E+02  0.2188E+02
      4.938  0.1084E+01  0.1086E+01  0.2194E+02  0.2194E+02
      4.997  0.7023E+00  0.7058E+00  0.2198E+02  0.2198E+02
      5.056  0.4688E+00  0.4695E+00  0.2201E+02  0.2201E+02
      5.114  0.6414E+00  0.6393E+00  0.2205E+02  0.2205E+02
      5.173  0.1023E+01  0.1021E+01  0.2211E+02  0.2211E+02
      5.232  0.1016E+01  0.1018E+01  0.2217E+02  0.2217E+02
      5.291  0.5836E+00  0.5864E+00  0.2220E+02  0.2220E+02
      5.350  0.2727E+00  0.2739E+00  0.2222E+02  0.2222E+02
      5.409  0.2196E+00  0.2191E+00  0.2223E+02  0.2223E+02
      5.468  0.3743E+00  0.3726E+00  0.2226E+02  0.2225E+02
      5.527  0.5809E+00  0.5800E+00  0.2229E+02  0.2229E+02
      5.585  0.5930E+00  0.5938E+00  0.2232E+02  0.2232E+02
      5.644  0.6058E+00  0.6056E+00  0.2236E+02  0.2236E+02
      5.703  0.8723E+00  0.8707E+00  0.2241E+02  0.2241E+02
      5.762  0.1066E+01  0.1066E+01  0.2247E+02  0.2247E+02
      5.821  0.8079E+00  0.8101E+00  0.2252E+02  0.2252E+02
      5.880  0.4125E+00  0.4143E+00  0.2255E+02  0.2255E+02
      5.939  0.2351E+00  0.2355E+00  0.2256E+02  0.2256E+02
      5.998  0.3329E+00  0.3320E+00  0.2258E+02  0.2258E+02
      6.056  0.7480E+00  0.7456E+00  0.2262E+02  0.2262E+02
      6.115  0.1337E+01  0.1334E+01  0.2270E+02  0.2270E+02
      6.174  0.1480E+01  0.1480E+01  0.2279E+02  0.2279E+02
      6.233  0.1017E+01  0.1019E+01  0.2285E+02  0.2285E+02
      6.292  0.5165E+00  0.5182E+00  0.2288E+02  0.2288E+02
      6.351  0.3384E+00  0.3388E+00  0.2290E+02  0.2290E+02
      6.410  0.4573E+00  0.4569E+00  0.2293E+02  0.2293E+02
      6.469  0.6450E+00  0.6447E+00  0.2296E+02  0.2296E+02
      6.527  0.6875E+00  0.6872E+00  0.2301E+02  0.2301E+02
      6.586  0.8425E+00  0.8413E+00  0.2306E+02  0.2305E+02
      6.645  0.1118E+01  0.1118E+01  0.2312E+02  0.2312E+02
      6.704  0.9635E+00  0.9649E+00  0.2318E+02  0.2318E+02
      6.763  0.5075E+00  0.5090E+00  0.2321E+02  0.2321E+02
      6.822  0.2334E+00  0.2342E+00  0.2322E+02  0.2322E+02
      6.881  0.2109E+00  0.2114E+00  0.2323E+02  0.2323E+02
      6.940  0.4395E+00  0.4402E+00  0.2326E+02  0.2326E+02
      6.999  0.9159E+00  0.9165E+00  0.2331E+02  0.2331E+02
      7.057  0.1277E+01  0.1276E+01  0.2339E+02  0.2339E+02
      7.116  0.1308E+01  0.1306E+01  0.2347E+02  0.2347E+02
      7.175  0.1547E+01  0.1544E+01  0.2356E+02  0.2356E+02
      7.234  0.1737E+01  0.1737E+01  0.2366E+02  0.2366E+02
      7.293  0.1218E+01  0.1219E+01  0.2373E+02  0.2373E+02
      7.352  0.5754E+00  0.5768E+00  0.2376E+02  0.2376E+02
      7.411  0.3051E+00  0.3058E+00  0.2378E+02  0.2378E+02
      7.470  0.3662E+00  0.3667E+00  0.2380E+02  0.2380E+02
      7.528  0.6193E+00  0.6192E+00  0.2384E+02  0.2384E+02
      7.587  0.8145E+00  0.8133E+00  0.2389E+02  0.2389E+02
      7.646  0.9666E+00  0.9657E+00  0.2395E+02  0.2395E+02
      7.705  0.1209E+01  0.1211E+01  0.2402E+02  0.2402E+02
      7.764  0.1386E+01  0.1388E+01  0.2410E+02  0.2410E+02
      7.823  0.1188E+01  0.1187E+01  0.2417E+02  0.2417E+02
      7.882  0.7271E+00  0.7252E+00  0.2421E+02  0.2421E+02
      7.941  0.5605E+00  0.5580E+00  0.2424E+02  0.2424E+02
      7.999  0.8217E+00  0.8186E+00  0.2429E+02  0.2429E+02
      8.058  0.1101E+01  0.1100E+01  0.2436E+02  0.2436E+02
      8.117  0.8544E+00  0.8570E+00  0.2441E+02  0.2441E+02
      8.176  0.4020E+00  0.4042E+00  0.2443E+02  0.2443E+02
      8.235  0.1455E+00  0.1464E+00  0.2444E+02  0.2444E+02
      8.294  0.4761E-01  0.4794E-01  0.2444E+02  0.2444E+02
      8.353  0.1621E-01  0.1631E-01  0.2444E+02  0.2444E+02
      8.412  0.9197E-02  0.9204E-02  0.2444E+02  0.2444E+02
      8.470  0.1455E-01  0.1447E-01  0.2445E+02  0.2445E+02
      8.529  0.4288E-01  0.4267E-01  0.2445E+02  0.2445E+02
      8.588  0.1062E+00  0.1058E+00  0.2445E+02  0.2445E+02
      8.647  0.1753E+00  0.1751E+00  0.2446E+02  0.2446E+02
      8.706  0.1641E+00  0.1644E+00  0.2447E+02  0.2447E+02
      8.765  0.1036E+00  0.1038E+00  0.2448E+02  0.2448E+02
      8.824  0.9835E-01  0.9818E-01  0.2449E+02  0.2449E+02
      8.883  0.2172E+00  0.2163E+00  0.2450E+02  0.2450E+02
      8.941  0.5784E+00  0.5763E+00  0.2453E+02  0.2453E+02
      9.000  0.1227E+01  0.1224E+01  0.2461E+02  0.2461E+02
      9.059  0.1609E+01  0.1609E+01  0.2470E+02  0.2470E+02
      9.118  0.1181E+01  0.1183E+01  0.2477E+02  0.2477E+02
      9.177  0.5983E+00  0.5997E+00  0.2480E+02  0.2480E+02
      9.236  0.4090E+00  0.4082E+00  0.2483E+02  0.2483E+02
      9.295  0.6589E+00  0.6560E+00  0.2487E+02  0.2487E+02
      9.354  0.1243E+01  0.1240E+01  0.2494E+02  0.2494E+02
      9.413  0.1743E+01  0.1746E+01  0.2504E+02  0.2504E+02
      9.471  0.2039E+01  0.2043E+01  0.2516E+02  0.2516E+02
      9.530  0.2144E+01  0.2145E+01  0.2529E+02  0.2529E+02
      9.589  0.1800E+01  0.1798E+01  0.2540E+02  0.2540E+02
      9.648  0.1266E+01  0.1264E+01  0.2547E+02  0.2547E+02
      9.707  0.1094E+01  0.1092E+01  0.2553E+02  0.2553E+02
      9.766  0.1204E+01  0.1203E+01  0.2561E+02  0.2561E+02
      9.825  0.9585E+00  0.9600E+00  0.2566E+02  0.2566E+02
      9.884  0.4988E+00  0.5000E+00  0.2569E+02  0.2569E+02
      9.942  0.2796E+00  0.2796E+00  0.2571E+02  0.2571E+02
     10.001  0.3508E+00  0.3496E+00  0.2573E+02  0.2573E+02
     10.060  0.6194E+00  0.6180E+00  0.2577E+02  0.2577E+02
     10.119  0.8643E+00  0.8641E+00  0.2582E+02  0.2582E+02
     10.178  0.1077E+01  0.1077E+01  0.2588E+02  0.2588E+02
     10.237  0.1206E+01  0.1207E+01  0.2595E+02  0.2595E+02
     10.296  0.8758E+00  0.8774E+00  0.2600E+02  0.2600E+02
     10.355  0.4365E+00  0.4374E+00  0.2603E+02  0.2603E+02
     10.413  0.2654E+00  0.2652E+00  0.2604E+02  0.2604E+02
     10.472  0.3540E+00  0.3530E+00  0.2607E+02  0.2606E+02
     10.531  0.5356E+00  0.5349E+00  0.2610E+02  0.2610E+02
     10.590  0.5023E+00  0.5032E+00  0.2613E+02  0.2613E+02
     10.649  0.3140E+00  0.3149E+00  0.2614E+02  0.2614E+02
     10.708  0.2658E+00  0.2658E+00  0.2616E+02  0.2616E+02
     10.767  0.4128E+00  0.4122E+00  0.2618E+02  0.2618E+02
     10.826  0.5500E+00  0.5499E+00  0.2622E+02  0.2622E+02
     10.884  0.4203E+00  0.4211E+00  0.2624E+02  0.2624E+02
     10.943  0.2006E+00  0.2012E+00  0.2625E+02  0.2625E+02
     11.002  0.9070E-01  0.9091E-01  0.2626E+02  0.2626E+02
     11.061  0.8966E-01  0.8956E-01  0.2626E+02  0.2626E+02
     11.120  0.2144E+00  0.2138E+00  0.2628E+02  0.2628E+02
     11.179  0.5768E+00  0.5756E+00  0.2631E+02  0.2631E+02
     11.238  0.1247E+01  0.1247E+01  0.2638E+02  0.2638E+02
     11.297  0.1834E+01  0.1836E+01  0.2649E+02  0.2649E+02
     11.355  0.1812E+01  0.1814E+01  0.2660E+02  0.2660E+02
     11.414  0.1291E+01  0.1290E+01  0.2668E+02  0.2668E+02
     11.473  0.9581E+00  0.9557E+00  0.2673E+02  0.2673E+02
     11.532  0.1123E+01  0.1121E+01  0.2680E+02  0.2680E+02
     11.591  0.1245E+01  0.1244E+01  0.2687E+02  0.2687E+02
     11.650  0.1015E+01  0.1014E+01  0.2693E+02  0.2693E+02
     11.709  0.8145E+00  0.8144E+00  0.2698E+02  0.2698E+02
     11.768  0.5841E+00  0.5865E+00  0.2701E+02  0.2701E+02
     11.827  0.3286E+00  0.3307E+00  0.2703E+02  0.2703E+02
     11.885  0.2633E+00  0.2634E+00  0.2705E+02  0.2705E+02
     11.944  0.4726E+00  0.4708E+00  0.2708E+02  0.2708E+02
     12.003  0.9005E+00  0.8982E+00  0.2713E+02  0.2713E+02
     12.062  0.1073E+01  0.1074E+01  0.2719E+02  0.2719E+02
     12.121  0.7140E+00  0.7155E+00  0.2723E+02  0.2723E+02
     12.180  0.3483E+00  0.3465E+00  0.2725E+02  0.2725E+02
     12.239  0.2644E+00  0.2549E+00  0.2727E+02  0.2727E+02
     12.298  0.4925E+00  0.4689E+00  0.2730E+02  0.2730E+02
     12.356  0.1047E+01  0.1018E+01  0.2736E+02  0.2736E+02
     12.415  0.1533E+01  0.1535E+01  0.2745E+02  0.2745E+02
     12.474  0.1326E+01  0.1356E+01  0.2753E+02  0.2753E+02
     12.533  0.7454E+00  0.7662E+00  0.2757E+02  0.2757E+02
     12.592  0.4182E+00  0.4241E+00  0.2760E+02  0.2760E+02
     12.651  0.4554E+00  0.4522E+00  0.2762E+02  0.2762E+02
     12.710  0.6515E+00  0.6448E+00  0.2766E+02  0.2766E+02
     12.769  0.7427E+00  0.7308E+00  0.2771E+02  0.2771E+02
     12.827  0.8990E+00  0.8751E+00  0.2776E+02  0.2776E+02
     12.886  0.1141E+01  0.1131E+01  0.2783E+02  0.2782E+02
     12.945  0.9443E+00  0.9681E+00  0.2788E+02  0.2788E+02
     13.004  0.4733E+00  0.4976E+00  0.2791E+02  0.2791E+02
     13.063  0.1756E+00  0.1869E+00  0.2792E+02  0.2792E+02
     13.122  0.5685E-01  0.6078E-01  0.2792E+02  0.2792E+02
     13.181  0.1809E-01  0.1935E-01  0.2793E+02  0.2793E+02
     13.240  0.6355E-02  0.6749E-02  0.2793E+02  0.2793E+02
     13.298  0.2676E-02  0.2675E-02  0.2793E+02  0.2793E+02
     13.357  0.8532E-02  0.8530E-02  0.2793E+02  0.2793E+02
     13.416  0.2616E-01  0.2616E-01  0.2793E+02  0.2793E+02
     13.475  0.7148E-01  0.7147E-01  0.2793E+02  0.2793E+02
     13.534  0.1464E+00  0.1464E+00  0.2794E+02  0.2794E+02
     13.593  0.1781E+00  0.1781E+00  0.2795E+02  0.2795E+02
     13.652  0.1183E+00  0.1183E+00  0.2796E+02  0.2796E+02
     13.711  0.5058E-01  0.5059E-01  0.2796E+02  0.2796E+02
     13.769  0.1750E-01  0.1750E-01  0.2796E+02  0.2796E+02
     13.828  0.5597E-02  0.5667E-02  0.2796E+02  0.2796E+02
     13.887  0.1852E-02  0.1900E-02  0.2796E+02  0.2796E+02
     13.946  0.7814E-03  0.1044E-02  0.2796E+02  0.2796E+02
     14.005  0.7848E-03  0.1632E-02  0.2796E+02  0.2796E+02
     14.064  0.2534E-02  0.5240E-02  0.2796E+02  0.2796E+02
     14.123  0.8088E-02  0.1642E-01  0.2796E+02  0.2796E+02
     14.182  0.2487E-01  0.4780E-01  0.2797E+02  0.2797E+02
     14.241  0.6853E-01  0.1138E+00  0.2797E+02  0.2797E+02
     14.299  0.1430E+00  0.1768E+00  0.2798E+02  0.2798E+02
     14.358  0.1790E+00  0.1504E+00  0.2799E+02  0.2799E+02
     14.417  0.1220E+00  0.7520E-01  0.2800E+02  0.2800E+02
     14.476  0.5295E-01  0.2782E-01  0.2800E+02  0.2800E+02
     14.535  0.1843E-01  0.9106E-02  0.2800E+02  0.2800E+02
     14.594  0.5906E-02  0.2860E-02  0.2800E+02  0.2800E+02
     14.653  0.1842E-02  0.8861E-03  0.2800E+02  0.2800E+02
     14.712  0.5696E-03  0.0000E+00  0.2800E+02  0.2800E+02
     14.770  0.0000E+00  0.0000E+00  0.2800E+02  0.2800E+02
     14.829  0.0000E+00  0.0000E+00  0.2800E+02  0.2800E+02
     14.888  0.0000E+00  0.0000E+00  0.2800E+02  0.2800E+02
     14.947  0.0000E+00  0.0000E+00  0.2800E+02  0.2800E+02
     15.006  0.0000E+00  0.0000E+00  0.2800E+02  0.2800E+02
     15.065  0.0000E+00  0.0000E+00  0.2800E+02  0.2800E+02
     15.124  0.0000E+00  0.0000E+00  0.2800E+02  0.2800E+02
     15.12369326     -2.53973498  301      5.03080996      1.00000000
     -2.540  0.0000E+00  0.0000E+00  0.0000E+00  0.0000E+00  0.0000E+00  0.0000E+00  0.0000E+00  0.0000E+00  0.0000E+00  0.0000E+00  0.0000E+00  0.0000E+00  0.0000E+00  0.0000E+00  0.0000E+00  0.0000E+00  0.0000E+00  0.0000E+00
     -2.481  0.0000E+00  0.0000E+00  0.0000E+00  0.0000E+00  0.0000E+00  0.0000E+00  0.0000E+00  0.0000E+00  0.0000E+00  0.0000E+00  0.0000E+00  0.0000E+00  0.0000E+00  0.0000E+00  0.0000E+00  0.0000E+00  0.0000E+00  0.0000E+00
     -2.422  0.0000E+00  0.0000E+00  0.0000E+00  0.0000E+00  0.0000E+00  0.0000E+00  0.0000E+00  0.0000E+00  0.0000E+00  0.0000E+00  0.0000E+00  0.0000E+00  0.0000E+00  0.0000E+00  0.0000E+00  0.0000E+00  0.0000E+00  0.0000E+00
     -2.363  0.0000E+00  0.0000E+00  0.0000E+00  0.0000E+00  0.0000E+00  0.0000E+00  0.0000E+00  0.0000E+00  0.0000E+00  0.0000E+00  0.0000E+00  0.0000E+00  0.0000E+00  0.0000E+00  0.0000E+00  0.0000E+00  0.0000E+00  0.0000E+00
     -2.304  0.0000E+00  0.0000E+00  0.0000E+00  0.0000E+00  0.0000E+00  0.0000E+00  0.0000E+00  0.0000E+00  0.0000E+00  0.0000E+00  0.0000E+00  0.0000E+00  0.0000E+00  0.0000E+00  0.0000E+00  0.0000E+00  0.0000E+00  0.0000E+00
     -2.245  0.0000E+00  0.0000E+00  0.0000E+00  0.0000E+00  0.0000E+00  0.0000E+00  0.0000E+00  0.0000E+00  0.0000E+00  0.0000E+00  0.0000E+00  0.0000E+00  0.0000E+00  0.0000E+00  0.0000E+00  0.0000E+00  0.0000E+00  0.0000E+00
     -2.186  0.9179E-05  0.9184E-05  0.3421E-07  0.3423E-07  0.3421E-07  0.3423E-07  0.3421E-07  0.3423E-07  0.4043E-08  0.4045E-08  0.4043E-08  0.4045E-08  0.7710E-20  0.2300E-20  0.4043E-08  0.4045E-08  0.7710E-20  0.2300E-20
     -2.128  0.2061E-04  0.2062E-04  0.7683E-07  0.7686E-07  0.7683E-07  0.7686E-07  0.7683E-07  0.7686E-07  0.9079E-08  0.9083E-08  0.9079E-08  0.9083E-08  0.1731E-19  0.5165E-20  0.9079E-08  0.9083E-08  0.1731E-19  0.5165E-20
     -2.069  0.6684E-04  0.6687E-04  0.2491E-06  0.2492E-06  0.2491E-06  0.2492E-06  0.2491E-06  0.2492E-06  0.2944E-07  0.2945E-07  0.2944E-07  0.2945E-07  0.5614E-19  0.1675E-19  0.2944E-07  0.2945E-07  0.5614E-19  0.1675E-19
     -2.010  0.2162E-03  0.2163E-03  0.8057E-06  0.8059E-06  0.8057E-06  0.8059E-06  0.8057E-06  0.8059E-06  0.9520E-07  0.9525E-07  0.9520E-07  0.9525E-07  0.1816E-18  0.5417E-19  0.9520E-07  0.9525E-07  0.1816E-18  0.5417E-19
     -1.951  0.6931E-03  0.6934E-03  0.2583E-05  0.2584E-05  0.2583E-05  0.2584E-05  0.2583E-05  0.2584E-05  0.3053E-06  0.3054E-06  0.3053E-06  0.3054E-06  0.5821E-18  0.1737E-18  0.3053E-06  0.3054E-06  0.5821E-18  0.1737E-18
     -1.892  0.2163E-02  0.2164E-02  0.8061E-05  0.8064E-05  0.8061E-05  0.8064E-05  0.8061E-05  0.8064E-05  0.9525E-06  0.9530E-06  0.9525E-06  0.9530E-06  0.1816E-17  0.5420E-18  0.9525E-06  0.9530E-06  0.1816E-17  0.5420E-18
     -1.833  0.6214E-02  0.6217E-02  0.2316E-04  0.2317E-04  0.2316E-04  0.2317E-04  0.2316E-04  0.2317E-04  0.2737E-05  0.2738E-05  0.2737E-05  0.2738E-05  0.5219E-17  0.1557E-17  0.2737E-05  0.2738E-05  0.5219E-17  0.1557E-17
     -1.774  0.1431E-01  0.1432E-01  0.5335E-04  0.5336E-04  0.5335E-04  0.5336E-04  0.5335E-04  0.5336E-04  0.6304E-05  0.6306E-05  0.6304E-05  0.6306E-05  0.1202E-16  0.3586E-17  0.6304E-05  0.6306E-05  0.1202E-16  0.3586E-17
     -1.715  0.2103E-01  0.2104E-01  0.7866E-04  0.7866E-04  0.7866E-04  0.7866E-04  0.7866E-04  0.7866E-04  0.9340E-05  0.9342E-05  0.9340E-05  0.9342E-05  0.7468E-07  0.7466E-07  0.9340E-05  0.9342E-05  0.7468E-07  0.7466E-07
     -1.657  0.1685E-01  0.1685E-01  0.6340E-04  0.6338E-04  0.6340E-04  0.6338E-04  0.6340E-04  0.6338E-04  0.7594E-05  0.7593E-05  0.7594E-05  0.7593E-05  0.1677E-06  0.1677E-06  0.7594E-05  0.7593E-05  0.1677E-06  0.1677E-06
     -1.598  0.8239E-02  0.8237E-02  0.3259E-04  0.3258E-04  0.3259E-04  0.3258E-04  0.3259E-04  0.3258E-04  0.4182E-05  0.4182E-05  0.4182E-05  0.4182E-05  0.5438E-06  0.5436E-06  0.4182E-05  0.4182E-05  0.5438E-06  0.5436E-06
     -1.539  0.3539E-02  0.3538E-02  0.1927E-04  0.1926E-04  0.1927E-04  0.1926E-04  0.1927E-04  0.1926E-04  0.3348E-05  0.3348E-05  0.3348E-05  0.3348E-05  0.1759E-05  0.1758E-05  0.3348E-05  0.3348E-05  0.1759E-05  0.1758E-05
     -1.480  0.2930E-02  0.2930E-02  0.3041E-04  0.3041E-04  0.3041E-04  0.3041E-04  0.3041E-04  0.3041E-04  0.7029E-05  0.7031E-05  0.7029E-05  0.7031E-05  0.5640E-05  0.5638E-05  0.7029E-05  0.7031E-05  0.5640E-05  0.5638E-05
     -1.421  0.6478E-02  0.6480E-02  0.8499E-04  0.8501E-04  0.8499E-04  0.8501E-04  0.8499E-04  0.8501E-04  0.2077E-04  0.2078E-04  0.2077E-04  0.2078E-04  0.1761E-04  0.1760E-04  0.2077E-04  0.2078E-04  0.1761E-04  0.1760E-04
     -1.362  0.1787E-01  0.1788E-01  0.2417E-03  0.2417E-03  0.2417E-03  0.2417E-03  0.2417E-03  0.2417E-03  0.5941E-04  0.5943E-04  0.5941E-04  0.5943E-04  0.5065E-04  0.5064E-04  0.5941E-04  0.5943E-04  0.5065E-04  0.5064E-04
     -1.303  0.4109E-01  0.4110E-01  0.5577E-03  0.5578E-03  0.5577E-03  0.5578E-03  0.5577E-03  0.5578E-03  0.1372E-03  0.1372E-03  0.1372E-03  0.1372E-03  0.1171E-03  0.1170E-03  0.1372E-03  0.1372E-03  0.1171E-03  0.1170E-03
     -1.244  0.6071E-01  0.6072E-01  0.8245E-03  0.8245E-03  0.8245E-03  0.8245E-03  0.8245E-03  0.8245E-03  0.2039E-03  0.2039E-03  0.2039E-03  0.2039E-03  0.1729E-03  0.1728E-03  0.2039E-03  0.2039E-03  0.1729E-03  0.1728E-03
     -1.186  0.4891E-01  0.4892E-01  0.6650E-03  0.6649E-03  0.6650E-03  0.6649E-03  0.6650E-03  0.6649E-03  0.1659E-03  0.1659E-03  0.1659E-03  0.1659E-03  0.1393E-03  0.1392E-03  0.1659E-03  0.1659E-03  0.1393E-03  0.1392E-03
     -1.127  0.2391E-01  0.2391E-01  0.3282E-03  0.3281E-03  0.3282E-03  0.3281E-03  0.3282E-03  0.3281E-03  0.8826E-04  0.8825E-04  0.8826E-04  0.8825E-04  0.6783E-04  0.6778E-04  0.8826E-04  0.8825E-04  0.6783E-04  0.6778E-04
     -1.068  0.9962E-02  0.9962E-02  0.1470E-03  0.1470E-03  0.1470E-03  0.1470E-03  0.1470E-03  0.1470E-03  0.6032E-04  0.6033E-04  0.6032E-04  0.6033E-04  0.2743E-04  0.2741E-04  0.6032E-04  0.6033E-04  0.2743E-04  0.2741E-04
     -1.009  0.7281E-02  0.7281E-02  0.1361E-03  0.1360E-03  0.1361E-03  0.1360E-03  0.1361E-03  0.1360E-03  0.1096E-03  0.1096E-03  0.1096E-03  0.1096E-03  0.1775E-04  0.1774E-04  0.1096E-03  0.1096E-03  0.1775E-04  0.1774E-04
     -0.950  0.1420E-01  0.1421E-01  0.3030E-03  0.3030E-03  0.3030E-03  0.3030E-03  0.3030E-03  0.3030E-03  0.3006E-03  0.3006E-03  0.3006E-03  0.3006E-03  0.3160E-04  0.3158E-04  0.3006E-03  0.3006E-03  0.3160E-04  0.3158E-04
     -0.891  0.3332E-01  0.3333E-01  0.7255E-03  0.7254E-03  0.7255E-03  0.7254E-03  0.7255E-03  0.7254E-03  0.7386E-03  0.7387E-03  0.7386E-03  0.7387E-03  0.7295E-04  0.7290E-04  0.7386E-03  0.7387E-03  0.7295E-04  0.7290E-04
     -0.832  0.5547E-01  0.5548E-01  0.1212E-02  0.1212E-02  0.1212E-02  0.1212E-02  0.1212E-02  0.1212E-02  0.1240E-02  0.1241E-02  0.1240E-02  0.1241E-02  0.1231E-03  0.1230E-03  0.1240E-02  0.1241E-02  0.1231E-03  0.1230E-03
     -0.773  0.5181E-01  0.5181E-01  0.1133E-02  0.1133E-02  0.1133E-02  0.1133E-02  0.1133E-02  0.1133E-02  0.1171E-02  0.1171E-02  0.1171E-02  0.1171E-02  0.1171E-03  0.1171E-03  0.1171E-02  0.1171E-02  0.1171E-03  0.1171E-03
     -0.715  0.2851E-01  0.2852E-01  0.6285E-03  0.6284E-03  0.6285E-03  0.6284E-03  0.6285E-03  0.6284E-03  0.6892E-03  0.6891E-03  0.6892E-03  0.6891E-03  0.7501E-04  0.7494E-04  0.6892E-03  0.6891E-03  0.7501E-04  0.7494E-04
     -0.656  0.1392E-01  0.1392E-01  0.3223E-03  0.3222E-03  0.3223E-03  0.3222E-03  0.3223E-03  0.3222E-03  0.4758E-03  0.4756E-03  0.4758E-03  0.4756E-03  0.7163E-04  0.7154E-04  0.4758E-03  0.4756E-03  0.7163E-04  0.7154E-04
     -0.597  0.1340E-01  0.1340E-01  0.3479E-03  0.3477E-03  0.3479E-03  0.3477E-03  0.3479E-03  0.3477E-03  0.7480E-03  0.7474E-03  0.7480E-03  0.7474E-03  0.1626E-03  0.1624E-03  0.7480E-03  0.7474E-03  0.1626E-03  0.1624E-03
     -0.538  0.2458E-01  0.2457E-01  0.6844E-03  0.6842E-03  0.6844E-03  0.6842E-03  0.6844E-03  0.6842E-03  0.1443E-02  0.1442E-02  0.1443E-02  0.1442E-02  0.4739E-03  0.4732E-03  0.1443E-02  0.1442E-02  0.4739E-03  0.4732E-03
     -0.479  0.4237E-01  0.4236E-01  0.1256E-02  0.1256E-02  0.1256E-02  0.1256E-02  0.1256E-02  0.1256E-02  0.1907E-02  0.1906E-02  0.1907E-02  0.1906E-02  0.1249E-02  0.1247E-02  0.1907E-02  0.1906E-02  0.1249E-02  0.1247E-02
     -0.420  0.5910E-01  0.5910E-01  0.1862E-02  0.1862E-02  0.1862E-02  0.1862E-02  0.1862E-02  0.1862E-02  0.1674E-02  0.1674E-02  0.1674E-02  0.1674E-02  0.2393E-02  0.2391E-02  0.1674E-02  0.1674E-02  0.2393E-02  0.2391E-02
     -0.361  0.5813E-01  0.5815E-01  0.1888E-02  0.1888E-02  0.1888E-02  0.1888E-02  0.1888E-02  0.1888E-02  0.1201E-02  0.1201E-02  0.1201E-02  0.1201E-02  0.2661E-02  0.2660E-02  0.1201E-02  0.1201E-02  0.2661E-02  0.2660E-02
     -0.302  0.3684E-01  0.3686E-01  0.1220E-02  0.1220E-02  0.1220E-02  0.1220E-02  0.1220E-02  0.1220E-02  0.8967E-03  0.8963E-03  0.8967E-03  0.8963E-03  0.1705E-02  0.1705E-02  0.8967E-03  0.8963E-03  0.1705E-02  0.1705E-02
     -0.243  0.2398E-01  0.2398E-01  0.8361E-03  0.8359E-03  0.8361E-03  0.8359E-03  0.8361E-03  0.8359E-03  0.1313E-02  0.1311E-02  0.1313E-02  0.1311E-02  0.9764E-03  0.9758E-03  0.1313E-02  0.1311E-02  0.9764E-03  0.9758E-03
     -0.185  0.3497E-01  0.3494E-01  0.1291E-02  0.1289E-02  0.1291E-02  0.1289E-02  0.1291E-02  0.1289E-02  0.3335E-02  0.3329E-02  0.3335E-02  0.3329E-02  0.1156E-02  0.1154E-02  0.3335E-02  0.3329E-02  0.1156E-02  0.1154E-02
     -0.126  0.7382E-01  0.7377E-01  0.2750E-02  0.2748E-02  0.2750E-02  0.2748E-02  0.2750E-02  0.2748E-02  0.8193E-02  0.8180E-02  0.8193E-02  0.8180E-02  0.2269E-02  0.2265E-02  0.8193E-02  0.8180E-02  0.2269E-02  0.2265E-02
     -0.067  0.1168E+00  0.1168E+00  0.4291E-02  0.4289E-02  0.4291E-02  0.4289E-02  0.4291E-02  0.4289E-02  0.1523E-01  0.1521E-01  0.1523E-01  0.1521E-01  0.3425E-02  0.3422E-02  0.1523E-01  0.1521E-01  0.3425E-02  0.3422E-02
     -0.008  0.1168E+00  0.1168E+00  0.4110E-02  0.4110E-02  0.4110E-02  0.4110E-02  0.4110E-02  0.4110E-02  0.2103E-01  0.2101E-01  0.2103E-01  0.2101E-01  0.3097E-02  0.3095E-02  0.2103E-01  0.2101E-01  0.3097E-02  0.3095E-02
      0.051  0.8557E-01  0.8560E-01  0.2750E-02  0.2751E-02  0.2750E-02  0.2751E-02  0.2750E-02  0.2751E-02  0.2453E-01  0.2449E-01  0.2453E-01  0.2449E-01  0.1934E-02  0.1932E-02  0.2453E-01  0.2449E-01  0.1934E-02  0.1932E-02
      0.110  0.5868E-01  0.5868E-01  0.1588E-02  0.1589E-02  0.1588E-02  0.1589E-02  0.1588E-02  0.1589E-02  0.2950E-01  0.2944E-01  0.2950E-01  0.2944E-01  0.1138E-02  0.1134E-02  0.2950E-01  0.2944E-01  0.1138E-02  0.1134E-02
      0.169  0.5276E-01  0.5271E-01  0.1170E-02  0.1170E-02  0.1170E-02  0.1170E-02  0.1170E-02  0.1170E-02  0.4076E-01  0.4068E-01  0.4076E-01  0.4068E-01  0.1291E-02  0.1279E-02  0.4076E-01  0.4068E-01  0.1291E-02  0.1279E-02
      0.228  0.5601E-01  0.5599E-01  0.1180E-02  0.1179E-02  0.1180E-02  0.1179E-02  0.1180E-02  0.1179E-02  0.5156E-01  0.5151E-01  0.5156E-01  0.5151E-01  0.3196E-02  0.3159E-02  0.5156E-01  0.5151E-01  0.3196E-02  0.3159E-02
      0.286  0.5428E-01  0.5428E-01  0.1360E-02  0.1357E-02  0.1360E-02  0.1357E-02  0.1360E-02  0.1357E-02  0.4944E-01  0.4946E-01  0.4944E-01  0.4946E-01  0.9279E-02  0.9168E-02  0.4944E-01  0.4946E-01  0.9279E-02  0.9168E-02
      0.345  0.6351E-01  0.6338E-01  0.2283E-02  0.2276E-02  0.2283E-02  0.2276E-02  0.2283E-02  0.2276E-02  0.4466E-01  0.4463E-01  0.4466E-01  0.4463E-01  0.2571E-01  0.2543E-01  0.4466E-01  0.4463E-01  0.2571E-01  0.2543E-01
      0.404  0.1008E+00  0.1005E+00  0.4213E-02  0.4202E-02  0.4213E-02  0.4202E-02  0.4213E-02  0.4202E-02  0.6220E-01  0.6200E-01  0.6220E-01  0.6200E-01  0.5761E-01  0.5713E-01  0.6220E-01  0.6200E-01  0.5761E-01  0.5713E-01