   4   4   1   0
  0.2085348E+02  0.4369310E-09  0.4369310E-09  0.4369310E-09  0.5000000E-15
  1.000000000000000E-004
  CAR 
 unknown system                          
     17.43664505     -2.13598589  301      6.43639025      1.00000000
     -2.136  0.0000E+00  0.0000E+00  0.0000E+00  0.0000E+00
     -2.071  0.0000E+00  0.0000E+00  0.0000E+00  0.0000E+00
     -2.006  0.0000E+00  0.0000E+00  0.0000E+00  0.0000E+00
     -1.940  0.0000E+00  0.0000E+00  0.0000E+00  0.0000E+00
     -1.875  0.0000E+00  0.0000E+00  0.0000E+00  0.0000E+00
     -1.810  0.0000E+00  0.0000E+00  0.0000E+00  0.0000E+00
     -1.745  0.0000E+00  0.0000E+00  0.0000E+00  0.0000E+00
     -1.679  0.9847E-04  0.9754E-04  0.6424E-05  0.6364E-05
     -1.614  0.2644E-03  0.2619E-03  0.2368E-04  0.2345E-04
     -1.549  0.9728E-03  0.9637E-03  0.8715E-04  0.8633E-04
     -1.484  0.3558E-02  0.3525E-02  0.3193E-03  0.3163E-03
     -1.418  0.1274E-01  0.1263E-01  0.1151E-02  0.1140E-02
     -1.353  0.4238E-01  0.4204E-01  0.3916E-02  0.3883E-02
     -1.288  0.1123E+00  0.1117E+00  0.1124E-01  0.1117E-01
     -1.223  0.1776E+00  0.1775E+00  0.2283E-01  0.2275E-01
     -1.157  0.1361E+00  0.1367E+00  0.3171E-01  0.3167E-01
     -1.092  0.5797E-01  0.5841E-01  0.3549E-01  0.3548E-01
     -1.027  0.2102E-01  0.2115E-01  0.3686E-01  0.3686E-01
     -0.962  0.1653E-01  0.1647E-01  0.3794E-01  0.3793E-01
     -0.896  0.4238E-01  0.4202E-01  0.4071E-01  0.4067E-01
     -0.831  0.1353E+00  0.1342E+00  0.4957E-01  0.4947E-01
     -0.766  0.3515E+00  0.3496E+00  0.7250E-01  0.7227E-01
     -0.701  0.5356E+00  0.5353E+00  0.1074E+00  0.1072E+00
     -0.635  0.3939E+00  0.3957E+00  0.1331E+00  0.1330E+00
     -0.570  0.1640E+00  0.1653E+00  0.1438E+00  0.1438E+00
     -0.505  0.5948E-01  0.5984E-01  0.1477E+00  0.1477E+00
     -0.440  0.4787E-01  0.4769E-01  0.1508E+00  0.1508E+00
     -0.374  0.1175E+00  0.1166E+00  0.1585E+00  0.1584E+00
     -0.309  0.3115E+00  0.3097E+00  0.1789E+00  0.1787E+00
     -0.244  0.5261E+00  0.5255E+00  0.2133E+00  0.2130E+00
     -0.179  0.4342E+00  0.4359E+00  0.2416E+00  0.2414E+00
     -0.113  0.1995E+00  0.2008E+00  0.2546E+00  0.2545E+00
     -0.048  0.9371E-01  0.9396E-01  0.2607E+00  0.2607E+00
      0.017  0.1214E+00  0.1208E+00  0.2686E+00  0.2686E+00
      0.082  0.2565E+00  0.2552E+00  0.2854E+00  0.2852E+00
      0.147  0.4374E+00  0.4358E+00  0.3140E+00  0.3138E+00
      0.213  0.5948E+00  0.5941E+00  0.3528E+00  0.3525E+00
      0.278  0.5081E+00  0.5099E+00  0.3860E+00  0.3858E+00
      0.343  0.2657E+00  0.2672E+00  0.4033E+00  0.4032E+00
      0.408  0.1909E+00  0.1906E+00  0.4158E+00  0.4157E+00
      0.474  0.3915E+00  0.3888E+00  0.4413E+00  0.4410E+00
      0.539  0.9213E+00  0.9168E+00  0.5014E+00  0.5009E+00
      0.604  0.1378E+01  0.1377E+01  0.5913E+00  0.5907E+00
      0.669  0.1274E+01  0.1276E+01  0.6745E+00  0.6740E+00
      0.735  0.9475E+00  0.9497E+00  0.7363E+00  0.7359E+00
      0.800  0.8230E+00  0.8228E+00  0.7900E+00  0.7896E+00
      0.865  0.1017E+01  0.1015E+01  0.8563E+00  0.8558E+00
      0.930  0.1177E+01  0.1176E+01  0.9331E+00  0.9326E+00
      0.996  0.1097E+01  0.1096E+01  0.1005E+01  0.1004E+01
      1.061  0.1409E+01  0.1401E+01  0.1097E+01  0.1096E+01
      1.126  0.2501E+01  0.2489E+01  0.1260E+01  0.1258E+01
      1.191  0.3465E+01  0.3461E+01  0.1486E+01  0.1484E+01
      1.257  0.3588E+01  0.3588E+01  0.1720E+01  0.1718E+01
      1.322  0.3622E+01  0.3617E+01  0.1957E+01  0.1954E+01
      1.387  0.4108E+01  0.4100E+01  0.2225E+01  0.2222E+01
      1.452  0.4521E+01  0.4518E+01  0.2520E+01  0.2516E+01
      1.518  0.4874E+01  0.4874E+01  0.2838E+01  0.2834E+01
      1.583  0.4759E+01  0.4766E+01  0.3149E+01  0.3146E+01
      1.648  0.4339E+01  0.4343E+01  0.3432E+01  0.3429E+01
      1.713  0.4162E+01  0.4160E+01  0.3703E+01  0.3701E+01
      1.779  0.4553E+01  0.4543E+01  0.4001E+01  0.3997E+01
      1.844  0.4882E+01  0.4883E+01  0.4319E+01  0.4316E+01
      1.909  0.3962E+01  0.3974E+01  0.4578E+01  0.4576E+01
      1.974  0.3188E+01  0.3193E+01  0.4786E+01  0.4784E+01
      2.040  0.3145E+01  0.3143E+01  0.4991E+01  0.4989E+01
      2.105  0.3721E+01  0.3712E+01  0.5234E+01  0.5232E+01
      2.170  0.4352E+01  0.4344E+01  0.5518E+01  0.5515E+01
      2.235  0.4589E+01  0.4585E+01  0.5818E+01  0.5815E+01
      2.300  0.4771E+01  0.4770E+01  0.6130E+01  0.6126E+01
      2.366  0.4780E+01  0.4783E+01  0.6442E+01  0.6438E+01
      2.431  0.5195E+01  0.5187E+01  0.6781E+01  0.6777E+01
      2.496  0.6317E+01  0.6306E+01  0.7193E+01  0.7188E+01
      2.561  0.6650E+01  0.6653E+01  0.7627E+01  0.7622E+01
      2.627  0.5598E+01  0.5613E+01  0.7992E+01  0.7989E+01
      2.692  0.5121E+01  0.5118E+01  0.8327E+01  0.8323E+01
      2.757  0.6626E+01  0.6607E+01  0.8759E+01  0.8754E+01
      2.822  0.8268E+01  0.8256E+01  0.9299E+01  0.9293E+01
      2.888  0.8359E+01  0.8364E+01  0.9844E+01  0.9839E+01
      2.953  0.7670E+01  0.7677E+01  0.1035E+02  0.1034E+02
      3.018  0.7363E+01  0.7365E+01  0.1083E+02  0.1082E+02
      3.083  0.6825E+01  0.6834E+01  0.1127E+02  0.1127E+02
      3.149  0.5734E+01  0.5744E+01  0.1165E+02  0.1164E+02
      3.214  0.5145E+01  0.5148E+01  0.1198E+02  0.1198E+02
      3.279  0.4695E+01  0.4699E+01  0.1229E+02  0.1229E+02
      3.344  0.4602E+01  0.4593E+01  0.1259E+02  0.1258E+02
      3.410  0.5282E+01  0.5271E+01  0.1293E+02  0.1293E+02
      3.475  0.5458E+01  0.5458E+01  0.1329E+02  0.1329E+02
      3.540  0.5397E+01  0.5393E+01  0.1364E+02  0.1364E+02
      3.605  0.6179E+01  0.6167E+01  0.1405E+02  0.1404E+02
      3.671  0.7044E+01  0.7038E+01  0.1451E+02  0.1450E+02
      3.736  0.6838E+01  0.6845E+01  0.1495E+02  0.1495E+02
      3.801  0.5632E+01  0.5647E+01  0.1532E+02  0.1532E+02
      3.866  0.4366E+01  0.4379E+01  0.1561E+02  0.1560E+02
      3.932  0.3863E+01  0.3865E+01  0.1586E+02  0.1585E+02
      3.997  0.4271E+01  0.4263E+01  0.1614E+02  0.1613E+02
      4.062  0.5077E+01  0.5067E+01  0.1647E+02  0.1646E+02
      4.127  0.5649E+01  0.5642E+01  0.1684E+02  0.1683E+02
      4.192  0.6044E+01  0.6042E+01  0.1723E+02  0.1723E+02
      4.258  0.5541E+01  0.5555E+01  0.1759E+02  0.1759E+02
      4.323  0.4508E+01  0.4516E+01  0.1789E+02  0.1788E+02
      4.388  0.4917E+01  0.4899E+01  0.1821E+02  0.1820E+02
      4.453  0.7030E+01  0.7003E+01  0.1867E+02  0.1866E+02
      4.519  0.8288E+01  0.8287E+01  0.1921E+02  0.1920E+02
      4.584  0.7534E+01  0.7550E+01  0.1970E+02  0.1969E+02
      4.649  0.5885E+01  0.5908E+01  0.2008E+02  0.2008E+02
      4.714  0.4561E+01  0.4574E+01  0.2038E+02  0.2038E+02
      4.780  0.3770E+01  0.3784E+01  0.2063E+02  0.2063E+02
      4.845  0.2396E+01  0.2413E+01  0.2078E+02  0.2078E+02
      4.910  0.1319E+01  0.1325E+01  0.2087E+02  0.2087E+02
      4.975  0.1125E+01  0.1124E+01  0.2094E+02  0.2094E+02
      5.041  0.1227E+01  0.1225E+01  0.2102E+02  0.2102E+02
      5.106  0.1534E+01  0.1530E+01  0.2112E+02  0.2112E+02
      5.171  0.1637E+01  0.1641E+01  0.2123E+02  0.2123E+02
      5.236  0.1055E+01  0.1063E+01  0.2130E+02  0.2130E+02
      5.302  0.5290E+00  0.5324E+00  0.2134E+02  0.2134E+02
      5.367  0.4779E+00  0.4767E+00  0.2137E+02  0.2137E+02
      5.432  0.5944E+00  0.5943E+00  0.2141E+02  0.2141E+02
      5.497  0.4890E+00  0.4910E+00  0.2144E+02  0.2144E+02
      5.563  0.4218E+00  0.4216E+00  0.2147E+02  0.2146E+02
      5.628  0.5491E+00  0.5480E+00  0.2150E+02  0.2150E+02
      5.693  0.4911E+00  0.4933E+00  0.2153E+02  0.2153E+02
      5.758  0.2393E+00  0.2413E+00  0.2155E+02  0.2155E+02
      5.824  0.8912E-01  0.8978E-01  0.2155E+02  0.2155E+02
      5.889  0.6451E-01  0.6420E-01  0.2156E+02  0.2156E+02
      5.954  0.1536E+00  0.1518E+00  0.2157E+02  0.2157E+02
      6.019  0.4543E+00  0.4496E+00  0.2160E+02  0.2160E+02
      6.085  0.9856E+00  0.9802E+00  0.2166E+02  0.2166E+02
      6.150  0.1225E+01  0.1225E+01  0.2174E+02  0.2174E+02
      6.215  0.1136E+01  0.1135E+01  0.2182E+02  0.2182E+02
      6.280  0.1230E+01  0.1230E+01  0.2190E+02  0.2190E+02
      6.345  0.9739E+00  0.9796E+00  0.2196E+02  0.2196E+02
      6.411  0.4825E+00  0.4869E+00  0.2199E+02  0.2199E+02
      6.476  0.3204E+00  0.3203E+00  0.2201E+02  0.2201E+02
      6.541  0.5796E+00  0.5752E+00  0.2205E+02  0.2205E+02
      6.606  0.1118E+01  0.1113E+01  0.2212E+02  0.2212E+02
      6.672  0.1295E+01  0.1294E+01  0.2221E+02  0.2221E+02
      6.737  0.1013E+01  0.1016E+01  0.2227E+02  0.2227E+02
      6.802  0.5787E+00  0.5842E+00  0.2231E+02  0.2231E+02
      6.867  0.2261E+00  0.2295E+00  0.2233E+02  0.2233E+02
      6.933  0.7392E-01  0.7508E-01  0.2233E+02  0.2233E+02
      6.998  0.3744E-01  0.3761E-01  0.2233E+02  0.2233E+02
      7.063  0.6916E-01  0.6859E-01  0.2234E+02  0.2234E+02
      7.128  0.2179E+00  0.2158E+00  0.2235E+02  0.2235E+02
      7.194  0.5977E+00  0.5936E+00  0.2239E+02  0.2239E+02
      7.259  0.1027E+01  0.1025E+01  0.2246E+02  0.2246E+02
      7.324  0.8883E+00  0.8918E+00  0.2252E+02  0.2252E+02
      7.389  0.4279E+00  0.4311E+00  0.2255E+02  0.2255E+02
      7.455  0.2066E+00  0.2071E+00  0.2256E+02  0.2256E+02
      7.520  0.2913E+00  0.2890E+00  0.2258E+02  0.2258E+02
      7.585  0.7569E+00  0.7510E+00  0.2263E+02  0.2263E+02
      7.650  0.1529E+01  0.1524E+01  0.2273E+02  0.2273E+02
      7.716  0.1806E+01  0.1809E+01  0.2284E+02  0.2284E+02
      7.781  0.1329E+01  0.1335E+01  0.2293E+02  0.2293E+02
      7.846  0.6890E+00  0.6935E+00  0.2298E+02  0.2298E+02
      7.911  0.2565E+00  0.2587E+00  0.2299E+02  0.2299E+02
      7.977  0.8589E-01  0.8654E-01  0.2300E+02  0.2300E+02
      8.042  0.5413E-01  0.5398E-01  0.2300E+02  0.2300E+02
      8.107  0.1236E+00  0.1225E+00  0.2301E+02  0.2301E+02
      8.172  0.3756E+00  0.3725E+00  0.2304E+02  0.2304E+02
      8.238  0.8581E+00  0.8542E+00  0.2309E+02  0.2309E+02
      8.303  0.1055E+01  0.1056E+01  0.2316E+02  0.2316E+02
      8.368  0.6343E+00  0.6384E+00  0.2320E+02  0.2320E+02
      8.433  0.2506E+00  0.2526E+00  0.2322E+02  0.2322E+02
      8.498  0.1424E+00  0.1428E+00  0.2323E+02  0.2323E+02
      8.564  0.2735E+00  0.2727E+00  0.2324E+02  0.2324E+02
      8.629  0.7594E+00  0.7568E+00  0.2329E+02  0.2329E+02
      8.694  0.1569E+01  0.1565E+01  0.2340E+02  0.2340E+02
      8.759  0.1958E+01  0.1956E+01  0.2352E+02  0.2352E+02
      8.825  0.1499E+01  0.1502E+01  0.2362E+02  0.2362E+02
      8.890  0.9361E+00  0.9380E+00  0.2368E+02  0.2368E+02
      8.955  0.7279E+00  0.7289E+00  0.2373E+02  0.2373E+02
      9.020  0.4714E+00  0.4732E+00  0.2376E+02  0.2376E+02
      9.086  0.2296E+00  0.2304E+00  0.2378E+02  0.2378E+02
      9.151  0.2244E+00  0.2239E+00  0.2379E+02  0.2379E+02
      9.216  0.5094E+00  0.5072E+00  0.2383E+02  0.2382E+02
      9.281  0.9848E+00  0.9825E+00  0.2389E+02  0.2389E+02
      9.347  0.1049E+01  0.1050E+01  0.2396E+02  0.2396E+02
      9.412  0.7709E+00  0.7723E+00  0.2401E+02  0.2401E+02
      9.477  0.9801E+00  0.9779E+00  0.2407E+02  0.2407E+02
      9.542  0.1783E+01  0.1778E+01  0.2419E+02  0.2419E+02
      9.608  0.2049E+01  0.2050E+01  0.2432E+02  0.2432E+02
      9.673  0.1225E+01  0.1231E+01  0.2440E+02  0.2440E+02
      9.738  0.4566E+00  0.4600E+00  0.2443E+02  0.2443E+02
      9.803  0.1371E+00  0.1383E+00  0.2444E+02  0.2444E+02
      9.869  0.3829E-01  0.3863E-01  0.2444E+02  0.2444E+02
      9.934  0.1053E-01  0.1063E-01  0.2444E+02  0.2444E+02
      9.999  0.1757E-03  0.1736E-03  0.2444E+02  0.2444E+02
     10.064  0.6469E-03  0.6393E-03  0.2444E+02  0.2444E+02
     10.130  0.2580E-02  0.2549E-02  0.2444E+02  0.2444E+02
     10.195  0.9135E-02  0.9030E-02  0.2445E+02  0.2445E+02
     10.260  0.3155E-01  0.3121E-01  0.2445E+02  0.2445E+02
     10.325  0.9444E-01  0.9363E-01  0.2445E+02  0.2445E+02
     10.390  0.1949E+00  0.1941E+00  0.2447E+02  0.2447E+02
     10.456  0.2603E+00  0.2599E+00  0.2448E+02  0.2448E+02
     10.521  0.3754E+00  0.3738E+00  0.2451E+02  0.2451E+02
     10.586  0.6328E+00  0.6307E+00  0.2455E+02  0.2455E+02
     10.651  0.8089E+00  0.8073E+00  0.2460E+02  0.2460E+02
     10.717  0.1031E+01  0.1028E+01  0.2467E+02  0.2467E+02
     10.782  0.1176E+01  0.1177E+01  0.2475E+02  0.2475E+02
     10.847  0.8278E+00  0.8311E+00  0.2480E+02  0.2480E+02
     10.912  0.6268E+00  0.6248E+00  0.2484E+02  0.2484E+02
     10.978  0.9228E+00  0.9171E+00  0.2490E+02  0.2490E+02
     11.043  0.1137E+01  0.1138E+01  0.2498E+02  0.2497E+02
     11.108  0.8492E+00  0.8554E+00  0.2503E+02  0.2503E+02
     11.173  0.8259E+00  0.8276E+00  0.2508E+02  0.2508E+02
     11.239  0.1465E+01  0.1463E+01  0.2518E+02  0.2518E+02
     11.304  0.2063E+01  0.2060E+01  0.2531E+02  0.2531E+02
     11.369  0.2021E+01  0.2019E+01  0.2545E+02  0.2545E+02
     11.434  0.1702E+01  0.1704E+01  0.2556E+02  0.2556E+02
     11.500  0.1200E+01  0.1205E+01  0.2564E+02  0.2564E+02
     11.565  0.6726E+00  0.6751E+00  0.2568E+02  0.2568E+02
     11.630  0.2830E+00  0.2838E+00  0.2570E+02  0.2570E+02
     11.695  0.1550E+00  0.1544E+00  0.2571E+02  0.2571E+02
     11.761  0.2666E+00  0.2639E+00  0.2573E+02  0.2573E+02
     11.826  0.6030E+00  0.5988E+00  0.2577E+02  0.2576E+02
     11.891  0.9861E+00  0.9836E+00  0.2583E+02  0.2583E+02
     11.956  0.1253E+01  0.1252E+01  0.2591E+02  0.2591E+02
     12.022  0.1106E+01  0.1110E+01  0.2598E+02  0.2598E+02
     12.087  0.5577E+00  0.5622E+00  0.2602E+02  0.2602E+02
     12.152  0.2033E+00  0.2050E+00  0.2603E+02  0.2603E+02
     12.217  0.1091E+00  0.1090E+00  0.2604E+02  0.2604E+02
     12.283  0.1883E+00  0.1864E+00  0.2605E+02  0.2605E+02
     12.348  0.4173E+00  0.4145E+00  0.2608E+02  0.2608E+02
     12.413  0.5474E+00  0.5478E+00  0.2612E+02  0.2612E+02
     12.478  0.3880E+00  0.3903E+00  0.2614E+02  0.2614E+02
     12.543  0.2956E+00  0.2956E+00  0.2616E+02  0.2616E+02
     12.609  0.4427E+00  0.4409E+00  0.2619E+02  0.2619E+02
     12.674  0.5444E+00  0.5450E+00  0.2622E+02  0.2622E+02
     12.739  0.3441E+00  0.3466E+00  0.2625E+02  0.2625E+02
     12.804  0.1344E+00  0.1357E+00  0.2626E+02  0.2626E+02
     12.870  0.6011E-01  0.6033E-01  0.2626E+02  0.2626E+02
     12.935  0.8889E-01  0.8818E-01  0.2627E+02  0.2627E+02
     13.000  0.2704E+00  0.2678E+00  0.2628E+02  0.2628E+02
     13.065  0.7838E+00  0.7781E+00  0.2633E+02  0.2633E+02
     13.131  0.1601E+01  0.1597E+01  0.2644E+02  0.2644E+02
     13.196  0.1995E+01  0.1997E+01  0.2657E+02  0.2657E+02
     13.261  0.1652E+01  0.1654E+01  0.2668E+02  0.2668E+02
     13.326  0.1347E+01  0.1345E+01  0.2677E+02  0.2676E+02
     13.392  0.1285E+01  0.1285E+01  0.2685E+02  0.2685E+02
     13.457  0.8717E+00  0.8748E+00  0.2691E+02  0.2691E+02
     13.522  0.5544E+00  0.5531E+00  0.2694E+02  0.2694E+02
     13.587  0.5875E+00  0.5853E+00  0.2698E+02  0.2698E+02
     13.653  0.5183E+00  0.5218E+00  0.2701E+02  0.2701E+02
     13.718  0.2862E+00  0.2898E+00  0.2703E+02  0.2703E+02
     13.783  0.2186E+00  0.2186E+00  0.2705E+02  0.2705E+02
     13.848  0.4475E+00  0.4431E+00  0.2708E+02  0.2708E+02
     13.914  0.9219E+00  0.9171E+00  0.2714E+02  0.2714E+02
     13.979  0.1040E+01  0.1044E+01  0.2720E+02  0.2720E+02
     14.044  0.6129E+00  0.6208E+00  0.2724E+02  0.2724E+02
     14.109  0.3532E+00  0.3630E+00  0.2727E+02  0.2727E+02
     14.175  0.5272E+00  0.5456E+00  0.2730E+02  0.2730E+02
     14.240  0.1046E+01  0.1063E+01  0.2737E+02  0.2737E+02
     14.305  0.1314E+01  0.1299E+01  0.2746E+02  0.2746E+02
     14.370  0.1074E+01  0.1051E+01  0.2753E+02  0.2753E+02
     14.436  0.6551E+00  0.6474E+00  0.2757E+02  0.2757E+02
     14.501  0.3030E+00  0.3008E+00  0.2759E+02  0.2759E+02
     14.566  0.2185E+00  0.2137E+00  0.2760E+02  0.2760E+02
     14.631  0.3919E+00  0.3823E+00  0.2763E+02  0.2763E+02
     14.696  0.6446E+00  0.6386E+00  0.2767E+02  0.2767E+02
     14.762  0.7454E+00  0.7419E+00  0.2772E+02  0.2772E+02
     14.827  0.9807E+00  0.9701E+00  0.2778E+02  0.2778E+02
     14.892  0.1120E+01  0.1125E+01  0.2786E+02  0.2785E+02
     14.957  0.6934E+00  0.7111E+00  0.2790E+02  0.2790E+02
     15.023  0.2617E+00  0.2714E+00  0.2792E+02  0.2792E+02
     15.088  0.8050E-01  0.8370E-01  0.2792E+02  0.2792E+02
     15.153  0.3327E-01  0.3409E-01  0.2793E+02  0.2793E+02
     15.218  0.4511E-01  0.4504E-01  0.2793E+02  0.2793E+02
     15.284  0.1064E+00  0.1058E+00  0.2794E+02  0.2794E+02
     15.349  0.1760E+00  0.1758E+00  0.2795E+02  0.2795E+02
     15.414  0.1414E+00  0.1420E+00  0.2796E+02  0.2796E+02
     15.479  0.6139E-01  0.6186E-01  0.2796E+02  0.2796E+02
     15.545  0.1946E-01  0.1963E-01  0.2796E+02  0.2796E+02
     15.610  0.5521E-02  0.5573E-02  0.2796E+02  0.2796E+02
     15.675  0.1516E-02  0.1531E-02  0.2796E+02  0.2796E+02
     15.740  0.0000E+00  0.0000E+00  0.2796E+02  0.2796E+02
     15.806  0.0000E+00  0.0000E+00  0.2796E+02  0.2796E+02
     15.871  0.0000E+00  0.0000E+00  0.2796E+02  0.2796E+02
     15.936  0.1792E-03  0.0000E+00  0.2796E+02  0.2796E+02
     16.001  0.4810E-03  0.0000E+00  0.2796E+02  0.2796E+02
     16.067  0.1767E-02  0.0000E+00  0.2796E+02  0.2796E+02
     16.132  0.6419E-02  0.1405E-03  0.2796E+02  0.2796E+02
     16.197  0.2246E-01  0.3773E-03  0.2797E+02  0.2796E+02
     16.262  0.6922E-01  0.1387E-02  0.2797E+02  0.2796E+02
     16.328  0.1506E+00  0.5056E-02  0.2798E+02  0.2796E+02
     16.393  0.1719E+00  0.1788E-01  0.2799E+02  0.2796E+02
     16.458  0.9645E-01  0.5712E-01  0.2800E+02  0.2797E+02
     16.523  0.3424E-01  0.1358E+00  0.2800E+02  0.2798E+02
     16.588  0.1008E-01  0.1776E+00  0.2800E+02  0.2799E+02
     16.654  0.2797E-02  0.1123E+00  0.2800E+02  0.2800E+02
     16.719  0.7634E-03  0.4238E-01  0.2800E+02  0.2800E+02
     16.784  0.0000E+00  0.1274E-01  0.2800E+02  0.2800E+02
     16.849  0.0000E+00  0.3558E-02  0.2800E+02  0.2800E+02
     16.915  0.0000E+00  0.9728E-03  0.2800E+02  0.2800E+02
     16.980  0.0000E+00  0.0000E+00  0.2800E+02  0.2800E+02
     17.045  0.0000E+00  0.0000E+00  0.2800E+02  0.2800E+02
     17.110  0.0000E+00  0.0000E+00  0.2800E+02  0.2800E+02
     17.176  0.0000E+00  0.0000E+00  0.2800E+02  0.2800E+02
     17.241  0.0000E+00  0.0000E+00  0.2800E+02  0.2800E+02
     17.306  0.0000E+00  0.0000E+00  0.2800E+02  0.2800E+02
     17.371  0.0000E+00  0.0000E+00  0.2800E+02  0.2800E+02
     17.437  0.0000E+00  0.0000E+00  0.2800E+02  0.2800E+02
     17.43664505     -2.13598589  301      6.43639025      1.00000000
     -2.136  0.0000E+00  0.0000E+00  0.0000E+00  0.0000E+00  0.0000E+00  0.0000E+00  0.0000E+00  0.0000E+00  0.0000E+00  0.0000E+00  0.0000E+00  0.0000E+00  0.0000E+00  0.0000E+00  0.0000E+00  0.0000E+00  0.0000E+00  0.0000E+00
     -2.071  0.0000E+00  0.0000E+00  0.0000E+00  0.0000E+00  0.0000E+00  0.0000E+00  0.0000E+00  0.0000E+00  0.0000E+00  0.0000E+00  0.0000E+00  0.0000E+00  0.0000E+00  0.0000E+00  0.0000E+00  0.0000E+00  0.0000E+00  0.0000E+00
     -2.006  0.0000E+00  0.0000E+00  0.0000E+00  0.0000E+00  0.0000E+00  0.0000E+00  0.0000E+00  0.0000E+00  0.0000E+00  0.0000E+00  0.0000E+00  0.0000E+00  0.0000E+00  0.0000E+00  0.0000E+00  0.0000E+00  0.0000E+00  0.0000E+00
     -1.940  0.0000E+00  0.0000E+00  0.0000E+00  0.0000E+00  0.0000E+00  0.0000E+00  0.0000E+00  0.0000E+00  0.0000E+00  0.0000E+00  0.0000E+00  0.0000E+00  0.0000E+00  0.0000E+00  0.0000E+00  0.0000E+00  0.0000E+00  0.0000E+00
     -1.875  0.0000E+00  0.0000E+00  0.0000E+00  0.0000E+00  0.0000E+00  0.0000E+00  0.0000E+00  0.0000E+00  0.0000E+00  0.0000E+00  0.0000E+00  0.0000E+00  0.0000E+00  0.0000E+00  0.0000E+00  0.0000E+00  0.0000E+00  0.0000E+00
     -1.810  0.0000E+00  0.0000E+00  0.0000E+00  0.0000E+00  0.0000E+00  0.0000E+00  0.0000E+00  0.0000E+00  0.0000E+00  0.0000E+00  0.0000E+00  0.0000E+00  0.0000E+00  0.0000E+00  0.0000E+00  0.0000E+00  0.0000E+00  0.0000E+00
     -1.745  0.0000E+00  0.0000E+00  0.0000E+00  0.0000E+00  0.0000E+00  0.0000E+00  0.0000E+00  0.0000E+00  0.0000E+00  0.0000E+00  0.0000E+00  0.0000E+00  0.0000E+00  0.0000E+00  0.0000E+00  0.0000E+00  0.0000E+00  0.0000E+00
     -1.679  0.1247E-04  0.1235E-04  0.5302E-07  0.5252E-07  0.5302E-07  0.5252E-07  0.5302E-07  0.5252E-07  0.5381E-08  0.5332E-08  0.5381E-08  0.5332E-08  0.4670E-20  0.2253E-20  0.5381E-08  0.5332E-08  0.4670E-20  0.2253E-20
     -1.614  0.3348E-04  0.3317E-04  0.1424E-06  0.1410E-06  0.1424E-06  0.1410E-06  0.1424E-06  0.1410E-06  0.1445E-07  0.1432E-07  0.1445E-07  0.1432E-07  0.1254E-19  0.6050E-20  0.1445E-07  0.1432E-07  0.1254E-19  0.6050E-20
     -1.549  0.1232E-03  0.1220E-03  0.5238E-06  0.5189E-06  0.5238E-06  0.5189E-06  0.5238E-06  0.5189E-06  0.5316E-07  0.5268E-07  0.5316E-07  0.5268E-07  0.4614E-19  0.2226E-19  0.5316E-07  0.5268E-07  0.4614E-19  0.2226E-19
     -1.484  0.4506E-03  0.4464E-03  0.1916E-05  0.1898E-05  0.1916E-05  0.1898E-05  0.1916E-05  0.1898E-05  0.1945E-06  0.1927E-06  0.1945E-06  0.1927E-06  0.1688E-18  0.8142E-19  0.1945E-06  0.1927E-06  0.1688E-18  0.8142E-19
     -1.418  0.1613E-02  0.1599E-02  0.6861E-05  0.6799E-05  0.6861E-05  0.6799E-05  0.6861E-05  0.6799E-05  0.6963E-06  0.6902E-06  0.6963E-06  0.6902E-06  0.6043E-18  0.2916E-18  0.6963E-06  0.6902E-06  0.6043E-18  0.2916E-18
     -1.353  0.5366E-02  0.5323E-02  0.2282E-04  0.2263E-04  0.2282E-04  0.2263E-04  0.2282E-04  0.2263E-04  0.2316E-05  0.2298E-05  0.2316E-05  0.2298E-05  0.2010E-17  0.9709E-18  0.2316E-05  0.2298E-05  0.2010E-17  0.9709E-18
     -1.288  0.1422E-01  0.1414E-01  0.6047E-04  0.6014E-04  0.6047E-04  0.6014E-04  0.6047E-04  0.6014E-04  0.6138E-05  0.6105E-05  0.6138E-05  0.6105E-05  0.5327E-17  0.2580E-17  0.6138E-05  0.6105E-05  0.5327E-17  0.2580E-17
     -1.223  0.2249E-01  0.2248E-01  0.9563E-04  0.9556E-04  0.9563E-04  0.9556E-04  0.9563E-04  0.9556E-04  0.9706E-05  0.9701E-05  0.9706E-05  0.9701E-05  0.8424E-17  0.4099E-17  0.9706E-05  0.9701E-05  0.8424E-17  0.4099E-17
     -1.157  0.1723E-01  0.1731E-01  0.7370E-04  0.7402E-04  0.7370E-04  0.7402E-04  0.7370E-04  0.7402E-04  0.7544E-05  0.7578E-05  0.7544E-05  0.7578E-05  0.1073E-06  0.1063E-06  0.7544E-05  0.7578E-05  0.1073E-06  0.1063E-06
     -1.092  0.7336E-02  0.7392E-02  0.3236E-04  0.3259E-04  0.3236E-04  0.3259E-04  0.3236E-04  0.3259E-04  0.3455E-05  0.3477E-05  0.3455E-05  0.3477E-05  0.2882E-06  0.2853E-06  0.3455E-05  0.3477E-05  0.2882E-06  0.2853E-06
     -1.027  0.2645E-02  0.2662E-02  0.1555E-04  0.1558E-04  0.1555E-04  0.1558E-04  0.1555E-04  0.1558E-04  0.2204E-05  0.2202E-05  0.2204E-05  0.2202E-05  0.1060E-05  0.1050E-05  0.2204E-05  0.2202E-05  0.1060E-05  0.1050E-05
     -0.962  0.2032E-02  0.2025E-02  0.2435E-04  0.2418E-04  0.2435E-04  0.2418E-04  0.2435E-04  0.2418E-04  0.4762E-05  0.4724E-05  0.4762E-05  0.4724E-05  0.3875E-05  0.3837E-05  0.4762E-05  0.4724E-05  0.3875E-05  0.3837E-05
     -0.896  0.5149E-02  0.5106E-02  0.7804E-04  0.7735E-04  0.7804E-04  0.7735E-04  0.7804E-04  0.7735E-04  0.1610E-04  0.1596E-04  0.1610E-04  0.1596E-04  0.1385E-04  0.1372E-04  0.1610E-04  0.1596E-04  0.1385E-04  0.1372E-04
     -0.831  0.1642E-01  0.1629E-01  0.2552E-03  0.2531E-03  0.2552E-03  0.2531E-03  0.2552E-03  0.2531E-03  0.5292E-04  0.5251E-04  0.5292E-04  0.5251E-04  0.4572E-04  0.4533E-04  0.5292E-04  0.5251E-04  0.4572E-04  0.4533E-04
     -0.766  0.4264E-01  0.4242E-01  0.6627E-03  0.6592E-03  0.6627E-03  0.6592E-03  0.6627E-03  0.6592E-03  0.1374E-03  0.1367E-03  0.1374E-03  0.1367E-03  0.1187E-03  0.1180E-03  0.1374E-03  0.1367E-03  0.1187E-03  0.1180E-03
     -0.701  0.6498E-01  0.6496E-01  0.1010E-02  0.1010E-02  0.1010E-02  0.1010E-02  0.1010E-02  0.1010E-02  0.2099E-03  0.2099E-03  0.2099E-03  0.2099E-03  0.1809E-03  0.1807E-03  0.2099E-03  0.2099E-03  0.1809E-03  0.1807E-03
     -0.635  0.4779E-01  0.4802E-01  0.7435E-03  0.7469E-03  0.7435E-03  0.7469E-03  0.7435E-03  0.7469E-03  0.1554E-03  0.1562E-03  0.1554E-03  0.1562E-03  0.1330E-03  0.1336E-03  0.1554E-03  0.1562E-03  0.1330E-03  0.1336E-03
     -0.570  0.1988E-01  0.2004E-01  0.3119E-03  0.3142E-03  0.3119E-03  0.3142E-03  0.3119E-03  0.3142E-03  0.6937E-04  0.6983E-04  0.6937E-04  0.6983E-04  0.5516E-04  0.5556E-04  0.6937E-04  0.6983E-04  0.5516E-04  0.5556E-04
     -0.505  0.7154E-02  0.7200E-02  0.1215E-03  0.1221E-03  0.1215E-03  0.1221E-03  0.1215E-03  0.1221E-03  0.4240E-04  0.4238E-04  0.4240E-04  0.4238E-04  0.1918E-04  0.1931E-04  0.4240E-04  0.4238E-04  0.1918E-04  0.1931E-04
     -0.440  0.5584E-02  0.5566E-02  0.1238E-03  0.1231E-03  0.1238E-03  0.1231E-03  0.1238E-03  0.1231E-03  0.8752E-04  0.8686E-04  0.8752E-04  0.8686E-04  0.1290E-04  0.1286E-04  0.8752E-04  0.8686E-04  0.1290E-04  0.1286E-04
     -0.374  0.1350E-01  0.1340E-01  0.3344E-03  0.3318E-03  0.3344E-03  0.3318E-03  0.3344E-03  0.3318E-03  0.2780E-03  0.2758E-03  0.2780E-03  0.2758E-03  0.2867E-04  0.2844E-04  0.2780E-03  0.2758E-03  0.2867E-04  0.2844E-04
     -0.309  0.3573E-01  0.3553E-01  0.8967E-03  0.8913E-03  0.8967E-03  0.8913E-03  0.8967E-03  0.8913E-03  0.7579E-03  0.7537E-03  0.7579E-03  0.7537E-03  0.7501E-04  0.7451E-04  0.7579E-03  0.7537E-03  0.7501E-04  0.7451E-04
     -0.244  0.6035E-01  0.6028E-01  0.1515E-02  0.1513E-02  0.1515E-02  0.1513E-02  0.1515E-02  0.1513E-02  0.1282E-02  0.1281E-02  0.1282E-02  0.1281E-02  0.1276E-03  0.1274E-03  0.1282E-02  0.1281E-02  0.1276E-03  0.1274E-03
     -0.179  0.4978E-01  0.4999E-01  0.1251E-02  0.1255E-02  0.1251E-02  0.1255E-02  0.1251E-02  0.1255E-02  0.1068E-02  0.1072E-02  0.1068E-02  0.1072E-02  0.1069E-03  0.1072E-03  0.1068E-02  0.1072E-02  0.1069E-03  0.1072E-03
     -0.113  0.2278E-01  0.2294E-01  0.5772E-03  0.5809E-03  0.5772E-03  0.5809E-03  0.5772E-03  0.5809E-03  0.5303E-03  0.5334E-03  0.5303E-03  0.5334E-03  0.5635E-04  0.5655E-04  0.5303E-03  0.5334E-03  0.5635E-04  0.5655E-04
     -0.048  0.1039E-01  0.1043E-01  0.2804E-03  0.2810E-03  0.2804E-03  0.2810E-03  0.2804E-03  0.2810E-03  0.3856E-03  0.3850E-03  0.3856E-03  0.3850E-03  0.5332E-04  0.5304E-04  0.3856E-03  0.3850E-03  0.5332E-04  0.5304E-04
      0.017  0.1282E-01  0.1276E-01  0.3870E-03  0.3848E-03  0.3870E-03  0.3848E-03  0.3870E-03  0.3848E-03  0.7647E-03  0.7604E-03  0.7647E-03  0.7604E-03  0.1440E-03  0.1426E-03  0.7647E-03  0.7604E-03  0.1440E-03  0.1426E-03
      0.082  0.2684E-01  0.2671E-01  0.8600E-03  0.8552E-03  0.8600E-03  0.8552E-03  0.8600E-03  0.8552E-03  0.1544E-02  0.1540E-02  0.1544E-02  0.1540E-02  0.4800E-03  0.4754E-03  0.1544E-02  0.1540E-02  0.4800E-03  0.4754E-03
      0.147  0.4603E-01  0.4587E-01  0.1593E-02  0.1586E-02  0.1593E-02  0.1586E-02  0.1593E-02  0.1586E-02  0.1830E-02  0.1832E-02  0.1830E-02  0.1832E-02  0.1383E-02  0.1373E-02  0.1830E-02  0.1832E-02  0.1383E-02  0.1373E-02
      0.213  0.6306E-01  0.6299E-01  0.2323E-02  0.2320E-02  0.2323E-02  0.2320E-02  0.2323E-02  0.2320E-02  0.1422E-02  0.1426E-02  0.1422E-02  0.1426E-02  0.2589E-02  0.2582E-02  0.1422E-02  0.1426E-02  0.2589E-02  0.2582E-02
      0.278  0.5395E-01  0.5415E-01  0.2036E-02  0.2043E-02  0.2036E-02  0.2043E-02  0.2036E-02  0.2043E-02  0.9180E-03  0.9217E-03  0.9180E-03  0.9217E-03  0.2425E-02  0.2432E-02  0.9180E-03  0.9217E-03  0.2425E-02  0.2432E-02
      0.343  0.2793E-01  0.2810E-01  0.1076E-02  0.1082E-02  0.1076E-02  0.1082E-02  0.1076E-02  0.1082E-02  0.6394E-03  0.6397E-03  0.6394E-03  0.6397E-03  0.1240E-02  0.1247E-02  0.6394E-03  0.6397E-03  0.1240E-02  0.1247E-02
      0.408  0.1908E-01  0.1906E-01  0.7870E-03  0.7856E-03  0.7870E-03  0.7856E-03  0.7870E-03  0.7856E-03  0.1139E-02  0.1132E-02  0.1139E-02  0.1132E-02  0.6980E-03  0.6984E-03  0.1139E-02  0.1132E-02  0.6980E-03  0.6984E-03
      0.474  0.3756E-01  0.3731E-01  0.1627E-02  0.1616E-02  0.1627E-02  0.1616E-02  0.1627E-02  0.1616E-02  0.3410E-02  0.3384E-02  0.3410E-02  0.3384E-02  0.1132E-02  0.1124E-02  0.3410E-02  0.3384E-02  0.1132E-02  0.1124E-02
      0.539  0.8727E-01  0.8687E-01  0.3785E-02  0.3767E-02  0.3785E-02  0.3767E-02  0.3785E-02  0.3767E-02  0.8855E-02  0.8808E-02  0.8855E-02  0.8808E-02  0.2509E-02  0.2496E-02  0.8855E-02  0.8808E-02  0.2509E-02  0.2496E-02
      0.604  0.1272E+00  0.1271E+00  0.5399E-02  0.5398E-02  0.5399E-02  0.5398E-02  0.5399E-02  0.5398E-02  0.1578E-01  0.1575E-01  0.1578E-01  0.1575E-01  0.3454E-02  0.3452E-02  0.1578E-01  0.1575E-01  0.3454E-02  0.3452E-02
      0.669  0.1099E+00  0.1102E+00  0.4391E-02  0.4405E-02  0.4391E-02  0.4405E-02  0.4391E-02  0.4405E-02  0.2040E-01  0.2039E-01  0.2040E-01  0.2039E-01  0.2586E-02  0.2595E-02  0.2040E-01  0.2039E-01  0.2586E-02  0.2595E-02
      0.735  0.7168E-01  0.7194E-01  0.2537E-02  0.2549E-02  0.2537E-02  0.2549E-02  0.2537E-02  0.2549E-02  0.2250E-01  0.2249E-01  0.2250E-01  0.2249E-01  0.1357E-02  0.1362E-02  0.2250E-01  0.2249E-01  0.1357E-02  0.1362E-02
      0.800  0.4981E-01  0.4987E-01  0.1406E-02  0.1410E-02  0.1406E-02  0.1410E-02  0.1406E-02  0.1410E-02  0.2818E-01  0.2813E-01  0.2818E-01  0.2813E-01  0.7622E-03  0.7610E-03  0.2818E-01  0.2813E-01  0.7622E-03  0.7610E-03
      0.865  0.5205E-01  0.5200E-01  0.1247E-02  0.1247E-02  0.1247E-02  0.1247E-02  0.1247E-02  0.1247E-02  0.4081E-01  0.4073E-01  0.4081E-01  0.4073E-01  0.1147E-02  0.1133E-02  0.4081E-01  0.4073E-01  0.1147E-02  0.1133E-02
      0.930  0.5528E-01  0.5528E-01  0.1311E-02  0.1310E-02  0.1311E-02  0.1310E-02  0.1311E-02  0.1310E-02  0.4873E-01  0.4873E-01  0.4873E-01  0.4873E-01  0.3455E-02  0.3401E-02  0.4873E-01  0.4873E-01  0.3455E-02  0.3401E-02
      0.996  0.5011E-01  0.5005E-01  0.1572E-02  0.1564E-02  0.1572E-02  0.1564E-02  0.1572E-02  0.1564E-02  0.3973E-01  0.3980E-01  0.3973E-01  0.3980E-01  0.1142E-01  0.1125E-01  0.3973E-01  0.3980E-01  0.1142E-01  0.1125E-01
      1.061  0.6657E-01  0.6623E-01  0.3097E-02  0.3076E-02  0.3097E-02  0.3076E-02  0.3097E-02  0.3076E-02  0.3470E-01  0.3463E-01  0.3470E-01  0.3463E-01  0.3327E-01  0.3285E-01  0.3470E-01  0.3463E-01  0.3327E-01  0.3285E-01
      1.126  0.1127E+00  0.1124E+00  0.5652E-02  0.5634E-02  0.5652E-02  0.5634E-02  0.5652E-02  0.5634E-02  0.5738E-01  0.5713E-01  0.5738E-01  0.5713E-01  0.6896E-01  0.6847E-01  0.5738E-01  0.5713E-01  0.6896E-01  0.6847E-01