   4   4   1   0
  0.2026332E+02  0.4327697E-09  0.4327697E-09  0.4327697E-09  0.5000000E-15
  1.000000000000000E-004
  CAR 
 unknown system                          
     17.82737171     -2.00919113  301      6.82508812      1.00000000
     -2.009  0.0000E+00  0.0000E+00  0.0000E+00  0.0000E+00
     -1.943  0.0000E+00  0.0000E+00  0.0000E+00  0.0000E+00
     -1.877  0.0000E+00  0.0000E+00  0.0000E+00  0.0000E+00
     -1.811  0.0000E+00  0.0000E+00  0.0000E+00  0.0000E+00
     -1.745  0.0000E+00  0.0000E+00  0.0000E+00  0.0000E+00
     -1.679  0.0000E+00  0.0000E+00  0.0000E+00  0.0000E+00
     -1.612  0.0000E+00  0.0000E+00  0.0000E+00  0.0000E+00
     -1.546  0.8645E-04  0.8550E-04  0.5716E-05  0.5654E-05
     -1.480  0.2378E-03  0.2352E-03  0.2144E-04  0.2121E-04
     -1.414  0.8907E-03  0.8809E-03  0.8033E-04  0.7945E-04
     -1.348  0.3317E-02  0.3281E-02  0.2997E-03  0.2964E-03
     -1.282  0.1210E-01  0.1198E-01  0.1100E-02  0.1088E-02
     -1.216  0.4107E-01  0.4068E-01  0.3816E-02  0.3778E-02
     -1.150  0.1110E+00  0.1103E+00  0.1116E-01  0.1107E-01
     -1.083  0.1774E+00  0.1773E+00  0.2289E-01  0.2279E-01
     -1.017  0.1350E+00  0.1357E+00  0.3181E-01  0.3176E-01
     -0.951  0.5636E-01  0.5685E-01  0.3554E-01  0.3552E-01
     -0.885  0.1964E-01  0.1979E-01  0.3684E-01  0.3683E-01
     -0.819  0.1429E-01  0.1423E-01  0.3778E-01  0.3777E-01
     -0.753  0.3616E-01  0.3581E-01  0.4018E-01  0.4014E-01
     -0.687  0.1188E+00  0.1177E+00  0.4806E-01  0.4795E-01
     -0.621  0.3248E+00  0.3226E+00  0.6954E-01  0.6928E-01
     -0.555  0.5305E+00  0.5299E+00  0.1046E+00  0.1043E+00
     -0.488  0.4128E+00  0.4149E+00  0.1319E+00  0.1318E+00
     -0.422  0.1747E+00  0.1762E+00  0.1435E+00  0.1434E+00
     -0.356  0.6040E-01  0.6089E-01  0.1475E+00  0.1474E+00
     -0.290  0.4094E-01  0.4083E-01  0.1502E+00  0.1501E+00
     -0.224  0.9518E-01  0.9433E-01  0.1565E+00  0.1564E+00
     -0.158  0.2677E+00  0.2657E+00  0.1742E+00  0.1740E+00
     -0.092  0.5052E+00  0.5039E+00  0.2077E+00  0.2073E+00
     -0.026  0.4672E+00  0.4689E+00  0.2385E+00  0.2384E+00
      0.041  0.2250E+00  0.2267E+00  0.2534E+00  0.2533E+00
      0.107  0.9507E-01  0.9554E-01  0.2597E+00  0.2597E+00
      0.173  0.1013E+00  0.1008E+00  0.2664E+00  0.2663E+00
      0.239  0.2175E+00  0.2162E+00  0.2808E+00  0.2806E+00
      0.305  0.3898E+00  0.3881E+00  0.3067E+00  0.3064E+00
      0.371  0.5652E+00  0.5639E+00  0.3441E+00  0.3437E+00
      0.437  0.5496E+00  0.5512E+00  0.3804E+00  0.3802E+00
      0.503  0.3033E+00  0.3054E+00  0.4005E+00  0.4003E+00
      0.570  0.1727E+00  0.1729E+00  0.4119E+00  0.4118E+00
      0.636  0.2904E+00  0.2882E+00  0.4311E+00  0.4308E+00
      0.702  0.7399E+00  0.7349E+00  0.4800E+00  0.4794E+00
      0.768  0.1300E+01  0.1297E+01  0.5660E+00  0.5652E+00
      0.834  0.1339E+01  0.1341E+01  0.6545E+00  0.6539E+00
      0.900  0.1018E+01  0.1021E+01  0.7219E+00  0.7215E+00
      0.966  0.7998E+00  0.8005E+00  0.7747E+00  0.7744E+00
      1.032  0.9219E+00  0.9203E+00  0.8357E+00  0.8352E+00
      1.099  0.1144E+01  0.1143E+01  0.9114E+00  0.9108E+00
      1.165  0.1084E+01  0.1083E+01  0.9832E+00  0.9827E+00
      1.231  0.1163E+01  0.1157E+01  0.1060E+01  0.1059E+01
      1.297  0.2035E+01  0.2023E+01  0.1195E+01  0.1193E+01
      1.363  0.3165E+01  0.3158E+01  0.1404E+01  0.1402E+01
      1.429  0.3527E+01  0.3528E+01  0.1637E+01  0.1635E+01
      1.495  0.3432E+01  0.3430E+01  0.1864E+01  0.1862E+01
      1.561  0.3776E+01  0.3768E+01  0.2114E+01  0.2111E+01
      1.628  0.4235E+01  0.4231E+01  0.2394E+01  0.2391E+01
      1.694  0.4537E+01  0.4535E+01  0.2694E+01  0.2691E+01
      1.760  0.4721E+01  0.4725E+01  0.3006E+01  0.3004E+01
      1.826  0.4320E+01  0.4327E+01  0.3292E+01  0.3290E+01
      1.892  0.4025E+01  0.4026E+01  0.3558E+01  0.3556E+01
      1.958  0.4037E+01  0.4031E+01  0.3826E+01  0.3823E+01
      2.024  0.4712E+01  0.4702E+01  0.4137E+01  0.4134E+01
      2.090  0.4505E+01  0.4513E+01  0.4435E+01  0.4432E+01
      2.156  0.3408E+01  0.3418E+01  0.4661E+01  0.4659E+01
      2.223  0.2910E+01  0.2912E+01  0.4853E+01  0.4851E+01
      2.289  0.3079E+01  0.3075E+01  0.5057E+01  0.5055E+01
      2.355  0.3761E+01  0.3752E+01  0.5306E+01  0.5303E+01
      2.421  0.4296E+01  0.4289E+01  0.5590E+01  0.5587E+01
      2.487  0.4416E+01  0.4414E+01  0.5883E+01  0.5879E+01
      2.553  0.4547E+01  0.4548E+01  0.6183E+01  0.6180E+01
      2.619  0.4447E+01  0.4450E+01  0.6477E+01  0.6474E+01
      2.685  0.4970E+01  0.4961E+01  0.6806E+01  0.6802E+01
      2.752  0.6166E+01  0.6154E+01  0.7214E+01  0.7209E+01
      2.818  0.6448E+01  0.6452E+01  0.7641E+01  0.7637E+01
      2.884  0.5231E+01  0.5248E+01  0.7987E+01  0.7984E+01
      2.950  0.4659E+01  0.4657E+01  0.8295E+01  0.8292E+01
      3.016  0.6166E+01  0.6146E+01  0.8703E+01  0.8698E+01
      3.082  0.7904E+01  0.7892E+01  0.9226E+01  0.9221E+01
      3.148  0.7975E+01  0.7982E+01  0.9754E+01  0.9749E+01
      3.214  0.7227E+01  0.7235E+01  0.1023E+02  0.1023E+02
      3.281  0.7089E+01  0.7088E+01  0.1070E+02  0.1070E+02
      3.347  0.6906E+01  0.6911E+01  0.1116E+02  0.1115E+02
      3.413  0.5784E+01  0.5797E+01  0.1154E+02  0.1154E+02
      3.479  0.4926E+01  0.4930E+01  0.1187E+02  0.1186E+02
      3.545  0.4631E+01  0.4633E+01  0.1217E+02  0.1217E+02
      3.611  0.4410E+01  0.4406E+01  0.1247E+02  0.1246E+02
      3.677  0.4900E+01  0.4888E+01  0.1279E+02  0.1279E+02
      3.743  0.5238E+01  0.5236E+01  0.1314E+02  0.1313E+02
      3.810  0.4886E+01  0.4890E+01  0.1346E+02  0.1346E+02
      3.876  0.5074E+01  0.5065E+01  0.1380E+02  0.1379E+02
      3.942  0.6236E+01  0.6224E+01  0.1421E+02  0.1420E+02
      4.008  0.6834E+01  0.6833E+01  0.1466E+02  0.1465E+02
      4.074  0.6201E+01  0.6211E+01  0.1507E+02  0.1507E+02
      4.140  0.4971E+01  0.4985E+01  0.1540E+02  0.1540E+02
      4.206  0.3889E+01  0.3900E+01  0.1566E+02  0.1565E+02
      4.272  0.3659E+01  0.3659E+01  0.1590E+02  0.1590E+02
      4.339  0.4139E+01  0.4131E+01  0.1617E+02  0.1617E+02
      4.405  0.4907E+01  0.4898E+01  0.1650E+02  0.1649E+02
      4.471  0.5411E+01  0.5404E+01  0.1686E+02  0.1685E+02
      4.537  0.5820E+01  0.5817E+01  0.1724E+02  0.1724E+02
      4.603  0.5310E+01  0.5325E+01  0.1759E+02  0.1759E+02
      4.669  0.4114E+01  0.4125E+01  0.1786E+02  0.1786E+02
      4.735  0.4290E+01  0.4275E+01  0.1815E+02  0.1814E+02
      4.801  0.6315E+01  0.6287E+01  0.1857E+02  0.1856E+02
      4.867  0.7927E+01  0.7921E+01  0.1909E+02  0.1908E+02
      4.934  0.7459E+01  0.7473E+01  0.1958E+02  0.1958E+02
      5.000  0.6040E+01  0.6061E+01  0.1998E+02  0.1998E+02
      5.066  0.4579E+01  0.4594E+01  0.2029E+02  0.2028E+02
      5.132  0.3938E+01  0.3946E+01  0.2055E+02  0.2054E+02
      5.198  0.2974E+01  0.2990E+01  0.2074E+02  0.2074E+02
      5.264  0.1734E+01  0.1743E+01  0.2086E+02  0.2086E+02
      5.330  0.1221E+01  0.1223E+01  0.2094E+02  0.2094E+02
      5.396  0.1069E+01  0.1069E+01  0.2101E+02  0.2101E+02
      5.463  0.1289E+01  0.1284E+01  0.2110E+02  0.2109E+02
      5.529  0.1638E+01  0.1637E+01  0.2120E+02  0.2120E+02
      5.595  0.1251E+01  0.1259E+01  0.2129E+02  0.2129E+02
      5.661  0.6339E+00  0.6388E+00  0.2133E+02  0.2133E+02
      5.727  0.4847E+00  0.4841E+00  0.2136E+02  0.2136E+02
      5.793  0.6020E+00  0.6014E+00  0.2140E+02  0.2140E+02
      5.859  0.5332E+00  0.5351E+00  0.2144E+02  0.2144E+02
      5.925  0.4684E+00  0.4683E+00  0.2147E+02  0.2147E+02
      5.992  0.5726E+00  0.5723E+00  0.2151E+02  0.2151E+02
      6.058  0.4608E+00  0.4631E+00  0.2154E+02  0.2154E+02
      6.124  0.2045E+00  0.2065E+00  0.2155E+02  0.2155E+02
      6.190  0.6872E-01  0.6936E-01  0.2155E+02  0.2155E+02
      6.256  0.3871E-01  0.3862E-01  0.2156E+02  0.2156E+02
      6.322  0.8172E-01  0.8072E-01  0.2156E+02  0.2156E+02
      6.388  0.2619E+00  0.2586E+00  0.2158E+02  0.2158E+02
      6.454  0.7171E+00  0.7108E+00  0.2163E+02  0.2163E+02
      6.521  0.1225E+01  0.1221E+01  0.2171E+02  0.2171E+02
      6.587  0.1285E+01  0.1285E+01  0.2179E+02  0.2179E+02
      6.653  0.1303E+01  0.1303E+01  0.2188E+02  0.2188E+02
      6.719  0.1087E+01  0.1092E+01  0.2195E+02  0.2195E+02
      6.785  0.5525E+00  0.5580E+00  0.2199E+02  0.2199E+02
      6.851  0.3026E+00  0.3033E+00  0.2201E+02  0.2201E+02
      6.917  0.4827E+00  0.4782E+00  0.2204E+02  0.2204E+02
      6.983  0.1095E+01  0.1087E+01  0.2211E+02  0.2211E+02
      7.050  0.1549E+01  0.1548E+01  0.2221E+02  0.2221E+02
      7.116  0.1120E+01  0.1128E+01  0.2229E+02  0.2229E+02
      7.182  0.4698E+00  0.4761E+00  0.2232E+02  0.2232E+02
      7.248  0.1473E+00  0.1497E+00  0.2233E+02  0.2233E+02
      7.314  0.4308E-01  0.4376E-01  0.2233E+02  0.2233E+02
      7.380  0.1935E-01  0.1944E-01  0.2233E+02  0.2233E+02
      7.446  0.3248E-01  0.3215E-01  0.2234E+02  0.2234E+02
      7.512  0.1107E+00  0.1095E+00  0.2234E+02  0.2234E+02
      7.578  0.3554E+00  0.3520E+00  0.2237E+02  0.2237E+02
      7.645  0.8313E+00  0.8268E+00  0.2242E+02  0.2242E+02
      7.711  0.1053E+01  0.1054E+01  0.2249E+02  0.2249E+02
      7.777  0.6547E+00  0.6592E+00  0.2253E+02  0.2253E+02
      7.843  0.2838E+00  0.2857E+00  0.2255E+02  0.2255E+02
      7.909  0.2391E+00  0.2378E+00  0.2257E+02  0.2257E+02
      7.975  0.5527E+00  0.5475E+00  0.2261E+02  0.2261E+02
      8.041  0.1267E+01  0.1260E+01  0.2269E+02  0.2269E+02
      8.107  0.1918E+01  0.1917E+01  0.2282E+02  0.2282E+02
      8.174  0.1642E+01  0.1649E+01  0.2293E+02  0.2292E+02
      8.240  0.7778E+00  0.7843E+00  0.2298E+02  0.2298E+02
      8.306  0.2556E+00  0.2582E+00  0.2299E+02  0.2299E+02
      8.372  0.7567E-01  0.7642E-01  0.2300E+02  0.2300E+02
      8.438  0.3143E-01  0.3147E-01  0.2300E+02  0.2300E+02
      8.504  0.5076E-01  0.5020E-01  0.2300E+02  0.2300E+02
      8.570  0.1707E+00  0.1688E+00  0.2302E+02  0.2302E+02
      8.636  0.5084E+00  0.5041E+00  0.2305E+02  0.2305E+02
      8.703  0.9921E+00  0.9890E+00  0.2311E+02  0.2311E+02
      8.769  0.9557E+00  0.9593E+00  0.2318E+02  0.2318E+02
      8.835  0.4686E+00  0.4727E+00  0.2321E+02  0.2321E+02
      8.901  0.1796E+00  0.1811E+00  0.2322E+02  0.2322E+02
      8.967  0.1486E+00  0.1485E+00  0.2323E+02  0.2323E+02
      9.033  0.3777E+00  0.3758E+00  0.2326E+02  0.2326E+02
      9.099  0.1050E+01  0.1048E+01  0.2333E+02  0.2332E+02
      9.165  0.1948E+01  0.1944E+01  0.2345E+02  0.2345E+02
      9.232  0.1882E+01  0.1885E+01  0.2358E+02  0.2358E+02
      9.298  0.1029E+01  0.1033E+01  0.2365E+02  0.2365E+02
      9.364  0.5936E+00  0.5944E+00  0.2369E+02  0.2369E+02
      9.430  0.6049E+00  0.6047E+00  0.2373E+02  0.2373E+02
      9.496  0.4931E+00  0.4946E+00  0.2376E+02  0.2376E+02
      9.562  0.2634E+00  0.2643E+00  0.2378E+02  0.2378E+02
      9.628  0.2445E+00  0.2438E+00  0.2379E+02  0.2379E+02
      9.694  0.5447E+00  0.5421E+00  0.2383E+02  0.2383E+02
      9.761  0.1027E+01  0.1025E+01  0.2390E+02  0.2390E+02
      9.827  0.1042E+01  0.1044E+01  0.2397E+02  0.2397E+02
      9.893  0.7993E+00  0.7994E+00  0.2402E+02  0.2402E+02
      9.959  0.1172E+01  0.1168E+01  0.2410E+02  0.2410E+02
     10.025  0.2021E+01  0.2018E+01  0.2423E+02  0.2423E+02
     10.091  0.1908E+01  0.1913E+01  0.2436E+02  0.2436E+02
     10.157  0.9219E+00  0.9271E+00  0.2442E+02  0.2442E+02
     10.223  0.3020E+00  0.3040E+00  0.2444E+02  0.2444E+02
     10.289  0.8551E-01  0.8611E-01  0.2444E+02  0.2444E+02
     10.356  0.2317E-01  0.2333E-01  0.2444E+02  0.2444E+02
     10.422  0.3600E-02  0.3607E-02  0.2444E+02  0.2444E+02
     10.488  0.1621E-03  0.1600E-03  0.2444E+02  0.2444E+02
     10.554  0.7910E-03  0.7810E-03  0.2444E+02  0.2444E+02
     10.620  0.2773E-02  0.2738E-02  0.2444E+02  0.2444E+02
     10.686  0.1024E-01  0.1011E-01  0.2445E+02  0.2445E+02
     10.752  0.3628E-01  0.3585E-01  0.2445E+02  0.2445E+02
     10.818  0.1134E+00  0.1123E+00  0.2446E+02  0.2446E+02
     10.885  0.2599E+00  0.2583E+00  0.2447E+02  0.2447E+02
     10.951  0.4337E+00  0.4321E+00  0.2450E+02  0.2450E+02
     11.017  0.6159E+00  0.6148E+00  0.2454E+02  0.2454E+02
     11.083  0.6207E+00  0.6213E+00  0.2458E+02  0.2458E+02
     11.149  0.6364E+00  0.6341E+00  0.2462E+02  0.2462E+02
     11.215  0.9890E+00  0.9848E+00  0.2469E+02  0.2469E+02
     11.281  0.1116E+01  0.1118E+01  0.2476E+02  0.2476E+02
     11.347  0.8034E+00  0.8050E+00  0.2482E+02  0.2482E+02
     11.414  0.8304E+00  0.8256E+00  0.2487E+02  0.2487E+02
     11.480  0.1131E+01  0.1130E+01  0.2495E+02  0.2495E+02
     11.546  0.9390E+00  0.9454E+00  0.2501E+02  0.2501E+02
     11.612  0.6326E+00  0.6363E+00  0.2505E+02  0.2505E+02
     11.678  0.9025E+00  0.9008E+00  0.2511E+02  0.2511E+02
     11.744  0.1711E+01  0.1707E+01  0.2522E+02  0.2522E+02
     11.810  0.2283E+01  0.2280E+01  0.2537E+02  0.2537E+02
     11.876  0.1940E+01  0.1943E+01  0.2550E+02  0.2550E+02
     11.943  0.1129E+01  0.1134E+01  0.2558E+02  0.2558E+02
     12.009  0.7424E+00  0.7445E+00  0.2563E+02  0.2563E+02
     12.075  0.6350E+00  0.6360E+00  0.2567E+02  0.2567E+02
     12.141  0.3834E+00  0.3840E+00  0.2569E+02  0.2569E+02
     12.207  0.2323E+00  0.2313E+00  0.2571E+02  0.2571E+02
     12.273  0.3649E+00  0.3613E+00  0.2573E+02  0.2573E+02
     12.339  0.7549E+00  0.7502E+00  0.2578E+02  0.2578E+02
     12.405  0.1146E+01  0.1144E+01  0.2586E+02  0.2586E+02
     12.471  0.1294E+01  0.1296E+01  0.2595E+02  0.2594E+02
     12.538  0.8819E+00  0.8877E+00  0.2600E+02  0.2600E+02
     12.604  0.3577E+00  0.3613E+00  0.2603E+02  0.2603E+02
     12.670  0.1236E+00  0.1247E+00  0.2604E+02  0.2604E+02
     12.736  0.8638E-01  0.8740E-01  0.2604E+02  0.2604E+02
     12.802  0.1937E+00  0.1914E+00  0.2605E+02  0.2605E+02
     12.868  0.4329E+00  0.4299E+00  0.2608E+02  0.2608E+02
     12.934  0.5439E+00  0.5447E+00  0.2612E+02  0.2612E+02
     13.000  0.3752E+00  0.3775E+00  0.2614E+02  0.2614E+02
     13.067  0.3194E+00  0.3187E+00  0.2617E+02  0.2616E+02
     13.133  0.4879E+00  0.4861E+00  0.2620E+02  0.2620E+02
     13.199  0.5205E+00  0.5221E+00  0.2623E+02  0.2623E+02
     13.265  0.2826E+00  0.2853E+00  0.2625E+02  0.2625E+02
     13.331  0.1032E+00  0.1043E+00  0.2626E+02  0.2626E+02
     13.397  0.5456E-01  0.5460E-01  0.2626E+02  0.2626E+02
     13.463  0.1058E+00  0.1047E+00  0.2627E+02  0.2627E+02
     13.529  0.3394E+00  0.3358E+00  0.2629E+02  0.2629E+02
     13.596  0.9548E+00  0.9477E+00  0.2635E+02  0.2635E+02
     13.662  0.1792E+01  0.1789E+01  0.2647E+02  0.2647E+02
     13.728  0.2009E+01  0.2012E+01  0.2660E+02  0.2660E+02
     13.794  0.1588E+01  0.1590E+01  0.2671E+02  0.2671E+02
     13.860  0.1393E+01  0.1392E+01  0.2680E+02  0.2680E+02
     13.926  0.1138E+01  0.1141E+01  0.2688E+02  0.2688E+02
     13.992  0.6308E+00  0.6333E+00  0.2692E+02  0.2692E+02
     14.058  0.4580E+00  0.4553E+00  0.2695E+02  0.2695E+02
     14.125  0.5648E+00  0.5628E+00  0.2699E+02  0.2699E+02
     14.191  0.4762E+00  0.4804E+00  0.2702E+02  0.2702E+02
     14.257  0.2546E+00  0.2578E+00  0.2704E+02  0.2704E+02
     14.323  0.2312E+00  0.2302E+00  0.2705E+02  0.2705E+02
     14.389  0.5166E+00  0.5112E+00  0.2708E+02  0.2708E+02
     14.455  0.9950E+00  0.9906E+00  0.2715E+02  0.2715E+02
     14.521  0.9901E+00  0.9946E+00  0.2722E+02  0.2722E+02
     14.587  0.5694E+00  0.5741E+00  0.2725E+02  0.2725E+02
     14.654  0.4761E+00  0.4757E+00  0.2729E+02  0.2728E+02
     14.720  0.8517E+00  0.8480E+00  0.2734E+02  0.2734E+02
     14.786  0.1189E+01  0.1188E+01  0.2742E+02  0.2742E+02
     14.852  0.1004E+01  0.1005E+01  0.2749E+02  0.2749E+02
     14.918  0.7900E+00  0.7908E+00  0.2754E+02  0.2754E+02
     14.984  0.5248E+00  0.5291E+00  0.2757E+02  0.2757E+02
     15.050  0.2542E+00  0.2578E+00  0.2759E+02  0.2759E+02
     15.116  0.2092E+00  0.2125E+00  0.2760E+02  0.2760E+02
     15.182  0.3998E+00  0.4076E+00  0.2763E+02  0.2763E+02
     15.249  0.6342E+00  0.6587E+00  0.2767E+02  0.2768E+02
     15.315  0.6903E+00  0.7579E+00  0.2772E+02  0.2773E+02
     15.381  0.9240E+00  0.1017E+01  0.2778E+02  0.2779E+02
     15.447  0.1116E+01  0.1092E+01  0.2785E+02  0.2786E+02
     15.513  0.7160E+00  0.6194E+00  0.2790E+02  0.2791E+02
     15.579  0.2736E+00  0.2223E+00  0.2792E+02  0.2792E+02
     15.645  0.9195E-01  0.7516E-01  0.2793E+02  0.2793E+02
     15.711  0.6450E-01  0.5939E-01  0.2793E+02  0.2793E+02
     15.778  0.1198E+00  0.1178E+00  0.2794E+02  0.2794E+02
     15.844  0.1780E+00  0.1779E+00  0.2795E+02  0.2795E+02
     15.910  0.1319E+00  0.1326E+00  0.2796E+02  0.2796E+02
     15.976  0.5365E-01  0.5416E-01  0.2796E+02  0.2796E+02
     16.042  0.1637E-01  0.1655E-01  0.2796E+02  0.2796E+02
     16.108  0.4531E-02  0.4583E-02  0.2796E+02  0.2796E+02
     16.174  0.1220E-02  0.1234E-02  0.2796E+02  0.2796E+02
     16.240  0.0000E+00  0.0000E+00  0.2796E+02  0.2796E+02
     16.307  0.0000E+00  0.0000E+00  0.2796E+02  0.2796E+02
     16.373  0.0000E+00  0.0000E+00  0.2796E+02  0.2796E+02
     16.439  0.0000E+00  0.0000E+00  0.2796E+02  0.2796E+02
     16.505  0.1800E-03  0.1240E-03  0.2796E+02  0.2796E+02
     16.571  0.4950E-03  0.3410E-03  0.2796E+02  0.2796E+02
     16.637  0.1850E-02  0.1276E-02  0.2796E+02  0.2796E+02
     16.703  0.6833E-02  0.4737E-02  0.2796E+02  0.2796E+02
     16.769  0.2421E-01  0.1708E-01  0.2797E+02  0.2796E+02
     16.836  0.7457E-01  0.5567E-01  0.2797E+02  0.2797E+02
     16.902  0.1568E+00  0.1348E+00  0.2798E+02  0.2798E+02
     16.968  0.1669E+00  0.1774E+00  0.2799E+02  0.2799E+02
     17.034  0.8715E-01  0.1110E+00  0.2800E+02  0.2800E+02
     17.100  0.2950E-01  0.4107E-01  0.2800E+02  0.2800E+02
     17.166  0.8435E-02  0.1210E-01  0.2800E+02  0.2800E+02
     17.232  0.2292E-02  0.3317E-02  0.2800E+02  0.2800E+02
     17.298  0.6139E-03  0.8907E-03  0.2800E+02  0.2800E+02
     17.365  0.0000E+00  0.0000E+00  0.2800E+02  0.2800E+02
     17.431  0.0000E+00  0.0000E+00  0.2800E+02  0.2800E+02
     17.497  0.0000E+00  0.0000E+00  0.2800E+02  0.2800E+02
     17.563  0.0000E+00  0.0000E+00  0.2800E+02  0.2800E+02
     17.629  0.0000E+00  0.0000E+00  0.2800E+02  0.2800E+02
     17.695  0.0000E+00  0.0000E+00  0.2800E+02  0.2800E+02
     17.761  0.0000E+00  0.0000E+00  0.2800E+02  0.2800E+02
     17.827  0.0000E+00  0.0000E+00  0.2800E+02  0.2800E+02
     17.82737171     -2.00919113  301      6.82508812      1.00000000
     -2.009  0.0000E+00  0.0000E+00  0.0000E+00  0.0000E+00  0.0000E+00  0.0000E+00  0.0000E+00  0.0000E+00  0.0000E+00  0.0000E+00  0.0000E+00  0.0000E+00  0.0000E+00  0.0000E+00  0.0000E+00  0.0000E+00  0.0000E+00  0.0000E+00
     -1.943  0.0000E+00  0.0000E+00  0.0000E+00  0.0000E+00  0.0000E+00  0.0000E+00  0.0000E+00  0.0000E+00  0.0000E+00  0.0000E+00  0.0000E+00  0.0000E+00  0.0000E+00  0.0000E+00  0.0000E+00  0.0000E+00  0.0000E+00  0.0000E+00
     -1.877  0.0000E+00  0.0000E+00  0.0000E+00  0.0000E+00  0.0000E+00  0.0000E+00  0.0000E+00  0.0000E+00  0.0000E+00  0.0000E+00  0.0000E+00  0.0000E+00  0.0000E+00  0.0000E+00  0.0000E+00  0.0000E+00  0.0000E+00  0.0000E+00
     -1.811  0.0000E+00  0.0000E+00  0.0000E+00  0.0000E+00  0.0000E+00  0.0000E+00  0.0000E+00  0.0000E+00  0.0000E+00  0.0000E+00  0.0000E+00  0.0000E+00  0.0000E+00  0.0000E+00  0.0000E+00  0.0000E+00  0.0000E+00  0.0000E+00
     -1.745  0.0000E+00  0.0000E+00  0.0000E+00  0.0000E+00  0.0000E+00  0.0000E+00  0.0000E+00  0.0000E+00  0.0000E+00  0.0000E+00  0.0000E+00  0.0000E+00  0.0000E+00  0.0000E+00  0.0000E+00  0.0000E+00  0.0000E+00  0.0000E+00
     -1.679  0.0000E+00  0.0000E+00  0.0000E+00  0.0000E+00  0.0000E+00  0.0000E+00  0.0000E+00  0.0000E+00  0.0000E+00  0.0000E+00  0.0000E+00  0.0000E+00  0.0000E+00  0.0000E+00  0.0000E+00  0.0000E+00  0.0000E+00  0.0000E+00
     -1.612  0.0000E+00  0.0000E+00  0.0000E+00  0.0000E+00  0.0000E+00  0.0000E+00  0.0000E+00  0.0000E+00  0.0000E+00  0.0000E+00  0.0000E+00  0.0000E+00  0.0000E+00  0.0000E+00  0.0000E+00  0.0000E+00  0.0000E+00  0.0000E+00
     -1.546  0.1118E-04  0.1106E-04  0.4909E-07  0.4856E-07  0.4909E-07  0.4856E-07  0.4909E-07  0.4856E-07  0.4812E-08  0.4761E-08  0.4812E-08  0.4761E-08  0.2624E-20  0.9476E-21  0.4812E-08  0.4761E-08  0.2624E-20  0.9476E-21
     -1.480  0.3075E-04  0.3042E-04  0.1351E-06  0.1336E-06  0.1351E-06  0.1336E-06  0.1351E-06  0.1336E-06  0.1324E-07  0.1310E-07  0.1324E-07  0.1310E-07  0.7219E-20  0.2607E-20  0.1324E-07  0.1310E-07  0.7219E-20  0.2607E-20
     -1.414  0.1152E-03  0.1139E-03  0.5058E-06  0.5003E-06  0.5058E-06  0.5003E-06  0.5058E-06  0.5003E-06  0.4958E-07  0.4905E-07  0.4958E-07  0.4905E-07  0.2704E-19  0.9763E-20  0.4958E-07  0.4905E-07  0.2704E-19  0.9763E-20
     -1.348  0.4289E-03  0.4243E-03  0.1884E-05  0.1863E-05  0.1884E-05  0.1863E-05  0.1884E-05  0.1863E-05  0.1846E-06  0.1827E-06  0.1846E-06  0.1827E-06  0.1007E-18  0.3636E-19  0.1846E-06  0.1827E-06  0.1007E-18  0.3636E-19
     -1.282  0.1565E-02  0.1549E-02  0.6873E-05  0.6801E-05  0.6873E-05  0.6801E-05  0.6873E-05  0.6801E-05  0.6738E-06  0.6668E-06  0.6738E-06  0.6668E-06  0.3674E-18  0.1327E-18  0.6738E-06  0.6668E-06  0.3674E-18  0.1327E-18
     -1.216  0.5311E-02  0.5261E-02  0.2332E-04  0.2310E-04  0.2332E-04  0.2310E-04  0.2332E-04  0.2310E-04  0.2286E-05  0.2265E-05  0.2286E-05  0.2265E-05  0.1247E-17  0.4509E-18  0.2286E-05  0.2265E-05  0.1247E-17  0.4509E-18
     -1.150  0.1435E-01  0.1426E-01  0.6303E-04  0.6262E-04  0.6303E-04  0.6262E-04  0.6303E-04  0.6262E-04  0.6179E-05  0.6140E-05  0.6179E-05  0.6140E-05  0.3370E-17  0.1222E-17  0.6179E-05  0.6140E-05  0.3370E-17  0.1222E-17
     -1.083  0.2294E-01  0.2292E-01  0.1007E-03  0.1007E-03  0.1007E-03  0.1007E-03  0.1007E-03  0.1007E-03  0.9876E-05  0.9869E-05  0.9876E-05  0.9869E-05  0.5386E-17  0.1964E-17  0.9876E-05  0.9869E-05  0.5386E-17  0.1964E-17
     -1.017  0.1746E-01  0.1755E-01  0.7702E-04  0.7742E-04  0.7702E-04  0.7742E-04  0.7702E-04  0.7742E-04  0.7600E-05  0.7640E-05  0.7600E-05  0.7640E-05  0.8539E-07  0.8441E-07  0.7600E-05  0.7640E-05  0.8539E-07  0.8441E-07
     -0.951  0.7283E-02  0.7348E-02  0.3297E-04  0.3325E-04  0.3297E-04  0.3325E-04  0.3297E-04  0.3325E-04  0.3370E-05  0.3396E-05  0.3370E-05  0.3396E-05  0.2349E-06  0.2322E-06  0.3370E-05  0.3396E-05  0.2349E-06  0.2322E-06
     -0.885  0.2526E-02  0.2546E-02  0.1479E-04  0.1484E-04  0.1479E-04  0.1484E-04  0.1479E-04  0.1484E-04  0.1967E-05  0.1966E-05  0.1967E-05  0.1966E-05  0.8798E-06  0.8697E-06  0.1967E-05  0.1966E-05  0.8798E-06  0.8697E-06
     -0.819  0.1794E-02  0.1788E-02  0.2167E-04  0.2150E-04  0.2167E-04  0.2150E-04  0.2167E-04  0.2150E-04  0.4049E-05  0.4011E-05  0.4049E-05  0.4011E-05  0.3278E-05  0.3240E-05  0.4049E-05  0.4011E-05  0.3278E-05  0.3240E-05
     -0.753  0.4482E-02  0.4438E-02  0.7007E-04  0.6934E-04  0.7007E-04  0.6934E-04  0.7007E-04  0.6934E-04  0.1390E-04  0.1376E-04  0.1390E-04  0.1376E-04  0.1197E-04  0.1184E-04  0.1390E-04  0.1376E-04  0.1197E-04  0.1184E-04
     -0.687  0.1471E-01  0.1457E-01  0.2362E-03  0.2340E-03  0.2362E-03  0.2340E-03  0.2362E-03  0.2340E-03  0.4710E-04  0.4666E-04  0.4710E-04  0.4666E-04  0.4079E-04  0.4038E-04  0.4710E-04  0.4666E-04  0.4079E-04  0.4038E-04
     -0.621  0.4019E-01  0.3992E-01  0.6456E-03  0.6413E-03  0.6456E-03  0.6413E-03  0.6456E-03  0.6413E-03  0.1287E-03  0.1279E-03  0.1287E-03  0.1279E-03  0.1115E-03  0.1107E-03  0.1287E-03  0.1279E-03  0.1115E-03  0.1107E-03
     -0.555  0.6564E-01  0.6557E-01  0.1055E-02  0.1053E-02  0.1055E-02  0.1053E-02  0.1055E-02  0.1053E-02  0.2106E-03  0.2104E-03  0.2106E-03  0.2104E-03  0.1820E-03  0.1818E-03  0.2106E-03  0.2104E-03  0.1820E-03  0.1818E-03
     -0.488  0.5107E-01  0.5134E-01  0.8210E-03  0.8253E-03  0.8210E-03  0.8253E-03  0.8210E-03  0.8253E-03  0.1646E-03  0.1655E-03  0.1646E-03  0.1655E-03  0.1416E-03  0.1423E-03  0.1646E-03  0.1655E-03  0.1416E-03  0.1423E-03
     -0.422  0.2160E-01  0.2179E-01  0.3492E-03  0.3522E-03  0.3492E-03  0.3522E-03  0.3492E-03  0.3522E-03  0.7314E-04  0.7373E-04  0.7314E-04  0.7373E-04  0.5975E-04  0.6026E-04  0.7314E-04  0.7373E-04  0.5975E-04  0.6026E-04
     -0.356  0.7425E-02  0.7486E-02  0.1275E-03  0.1284E-03  0.1275E-03  0.1284E-03  0.1275E-03  0.1284E-03  0.3855E-04  0.3859E-04  0.3855E-04  0.3859E-04  0.2002E-04  0.2018E-04  0.3855E-04  0.3859E-04  0.2002E-04  0.2018E-04
     -0.290  0.4886E-02  0.4874E-02  0.1087E-03  0.1082E-03  0.1087E-03  0.1082E-03  0.1087E-03  0.1082E-03  0.6996E-04  0.6937E-04  0.6996E-04  0.6937E-04  0.1144E-04  0.1142E-04  0.6996E-04  0.6937E-04  0.1144E-04  0.1142E-04
     -0.224  0.1115E-01  0.1105E-01  0.2845E-03  0.2818E-03  0.2845E-03  0.2818E-03  0.2845E-03  0.2818E-03  0.2252E-03  0.2231E-03  0.2252E-03  0.2231E-03  0.2355E-04  0.2333E-04  0.2252E-03  0.2231E-03  0.2355E-04  0.2333E-04
     -0.158  0.3128E-01  0.3105E-01  0.8118E-03  0.8056E-03  0.8118E-03  0.8056E-03  0.8118E-03  0.8056E-03  0.6574E-03  0.6526E-03  0.6574E-03  0.6526E-03  0.6506E-04  0.6453E-04  0.6574E-03  0.6526E-03  0.6506E-04  0.6453E-04
     -0.092  0.5903E-01  0.5888E-01  0.1532E-02  0.1528E-02  0.1532E-02  0.1528E-02  0.1532E-02  0.1528E-02  0.1241E-02  0.1239E-02  0.1241E-02  0.1239E-02  0.1228E-03  0.1224E-03  0.1241E-02  0.1239E-02  0.1228E-03  0.1224E-03
     -0.026  0.5457E-01  0.5478E-01  0.1417E-02  0.1423E-02  0.1417E-02  0.1423E-02  0.1417E-02  0.1423E-02  0.1155E-02  0.1159E-02  0.1155E-02  0.1159E-02  0.1158E-03  0.1161E-03  0.1155E-02  0.1159E-02  0.1158E-03  0.1161E-03
      0.041  0.2621E-01  0.2642E-01  0.6844E-03  0.6896E-03  0.6844E-03  0.6896E-03  0.6844E-03  0.6896E-03  0.5855E-03  0.5896E-03  0.5855E-03  0.5896E-03  0.6030E-04  0.6062E-04  0.5855E-03  0.5896E-03  0.6030E-04  0.6062E-04
      0.107  0.1084E-01  0.1089E-01  0.2961E-03  0.2974E-03  0.2961E-03  0.2974E-03  0.2961E-03  0.2974E-03  0.3543E-03  0.3543E-03  0.3543E-03  0.3543E-03  0.4421E-04  0.4405E-04  0.3543E-03  0.3543E-03  0.4421E-04  0.4405E-04
      0.173  0.1094E-01  0.1088E-01  0.3354E-03  0.3335E-03  0.3354E-03  0.3335E-03  0.3354E-03  0.3335E-03  0.6327E-03  0.6285E-03  0.6327E-03  0.6285E-03  0.1050E-03  0.1038E-03  0.6327E-03  0.6285E-03  0.1050E-03  0.1038E-03
      0.239  0.2314E-01  0.2300E-01  0.7553E-03  0.7503E-03  0.7553E-03  0.7503E-03  0.7553E-03  0.7503E-03  0.1391E-02  0.1385E-02  0.1391E-02  0.1385E-02  0.3572E-03  0.3532E-03  0.1391E-02  0.1385E-02  0.3572E-03  0.3532E-03
      0.305  0.4166E-01  0.4148E-01  0.1463E-02  0.1456E-02  0.1463E-02  0.1456E-02  0.1463E-02  0.1456E-02  0.1844E-02  0.1845E-02  0.1844E-02  0.1845E-02  0.1108E-02  0.1098E-02  0.1844E-02  0.1845E-02  0.1108E-02  0.1098E-02
      0.371  0.6090E-01  0.6077E-01  0.2302E-02  0.2296E-02  0.2302E-02  0.2296E-02  0.2302E-02  0.2296E-02  0.1495E-02  0.1499E-02  0.1495E-02  0.1499E-02  0.2385E-02  0.2374E-02  0.1495E-02  0.1499E-02  0.2385E-02  0.2374E-02
      0.437  0.5939E-01  0.5957E-01  0.2314E-02  0.2321E-02  0.2314E-02  0.2321E-02  0.2314E-02  0.2321E-02  0.9992E-03  0.1004E-02  0.9992E-03  0.1004E-02  0.2633E-02  0.2639E-02  0.9992E-03  0.1004E-02  0.2633E-02  0.2639E-02
      0.503  0.3261E-01  0.3284E-01  0.1291E-02  0.1300E-02  0.1291E-02  0.1300E-02  0.1291E-02  0.1300E-02  0.6134E-03  0.6152E-03  0.6134E-03  0.6152E-03  0.1461E-02  0.1471E-02  0.6134E-03  0.6152E-03  0.1461E-02  0.1471E-02
      0.570  0.1785E-01  0.1789E-01  0.7468E-03  0.7476E-03  0.7468E-03  0.7476E-03  0.7468E-03  0.7476E-03  0.8223E-03  0.8168E-03  0.8223E-03  0.8168E-03  0.6951E-03  0.6977E-03  0.8223E-03  0.8168E-03  0.6951E-03  0.6977E-03
      0.636  0.2850E-01  0.2830E-01  0.1274E-02  0.1264E-02  0.1274E-02  0.1264E-02  0.1274E-02  0.1264E-02  0.2417E-02  0.2396E-02  0.2417E-02  0.2396E-02  0.8710E-03  0.8651E-03  0.2417E-02  0.2396E-02  0.8710E-03  0.8651E-03
      0.702  0.7156E-01  0.7109E-01  0.3225E-02  0.3203E-02  0.3225E-02  0.3203E-02  0.3225E-02  0.3203E-02  0.6908E-02  0.6860E-02  0.6908E-02  0.6860E-02  0.2050E-02  0.2035E-02  0.6908E-02  0.6860E-02  0.2050E-02  0.2035E-02
      0.768  0.1233E+00  0.1231E+00  0.5478E-02  0.5468E-02  0.5478E-02  0.5468E-02  0.5478E-02  0.5468E-02  0.1391E-01  0.1386E-01  0.1391E-01  0.1386E-01  0.3381E-02  0.3375E-02  0.1391E-01  0.1386E-01  0.3381E-02  0.3375E-02
      0.834  0.1204E+00  0.1207E+00  0.5094E-02  0.5109E-02  0.5094E-02  0.5109E-02  0.5094E-02  0.5109E-02  0.1935E-01  0.1933E-01  0.1935E-01  0.1933E-01  0.2937E-02  0.2946E-02  0.1935E-01  0.1933E-01  0.2937E-02  0.2946E-02
      0.900  0.8205E-01  0.8238E-01  0.3131E-02  0.3147E-02  0.3131E-02  0.3147E-02  0.3131E-02  0.3147E-02  0.2168E-01  0.2168E-01  0.2168E-01  0.2168E-01  0.1624E-02  0.1632E-02  0.2168E-01  0.2168E-01  0.1624E-02  0.1632E-02
      0.966  0.5257E-01  0.5271E-01  0.1638E-02  0.1645E-02  0.1638E-02  0.1645E-02  0.1638E-02  0.1645E-02  0.2529E-01  0.2525E-01  0.2529E-01  0.2525E-01  0.7902E-03  0.7922E-03  0.2529E-01  0.2525E-01  0.7902E-03  0.7922E-03
      1.032  0.4979E-01  0.4974E-01  0.1261E-02  0.1261E-02  0.1261E-02  0.1261E-02  0.1261E-02  0.1261E-02  0.3620E-01  0.3611E-01  0.3620E-01  0.3611E-01  0.8609E-03  0.8517E-03  0.3620E-01  0.3611E-01  0.8609E-03  0.8517E-03
      1.099  0.5593E-01  0.5591E-01  0.1339E-02  0.1338E-02  0.1339E-02  0.1338E-02  0.1339E-02  0.1338E-02  0.4760E-01  0.4756E-01  0.4760E-01  0.4756E-01  0.2336E-02  0.2299E-02  0.4760E-01  0.4756E-01  0.2336E-02  0.2299E-02
      1.165  0.5015E-01  0.5014E-01  0.1404E-02  0.1399E-02  0.1404E-02  0.1399E-02  0.1404E-02  0.1399E-02  0.4236E-01  0.4244E-01  0.4236E-01  0.4244E-01  0.7851E-02  0.7722E-02  0.4236E-01  0.4244E-01  0.7851E-02  0.7722E-02
      1.231  0.5532E-01  0.5505E-01  0.2443E-02  0.2424E-02  0.2443E-02  0.2424E-02  0.2443E-02  0.2424E-02  0.3141E-01  0.3141E-01  0.3141E-01  0.3141E-01  0.2469E-01  0.2434E-01  0.3141E-01  0.3141E-01  0.2469E-01  0.2434E-01
      1.297  0.9563E-01  0.9517E-01  0.4995E-02  0.4969E-02  0.4995E-02  0.4969E-02  0.4995E-02  0.4969E-02  0.4358E-01  0.4337E-01  0.4358E-01  0.4337E-01  0.5847E-01  0.5793E-01  0.4358E-01  0.4337E-01  0.5847E-01  0.5793E-01