   4   4   1   0
  0.1855986E+02  0.4202860E-09  0.4202860E-09  0.4202860E-09  0.5000000E-15
  1.000000000000000E-004
  CAR 
 unknown system                          
     19.70113039     -1.61570466  301      8.05129020      1.00000000
     -1.616  0.0000E+00  0.0000E+00  0.0000E+00  0.0000E+00
     -1.545  0.0000E+00  0.0000E+00  0.0000E+00  0.0000E+00
     -1.474  0.0000E+00  0.0000E+00  0.0000E+00  0.0000E+00
     -1.403  0.0000E+00  0.0000E+00  0.0000E+00  0.0000E+00
     -1.331  0.0000E+00  0.0000E+00  0.0000E+00  0.0000E+00
     -1.260  0.0000E+00  0.0000E+00  0.0000E+00  0.0000E+00
     -1.189  0.0000E+00  0.0000E+00  0.0000E+00  0.0000E+00
     -1.118  0.0000E+00  0.0000E+00  0.0000E+00  0.0000E+00
     -1.047  0.1731E-03  0.1727E-03  0.1230E-04  0.1227E-04
     -0.976  0.5430E-03  0.5419E-03  0.5088E-04  0.5077E-04
     -0.905  0.2237E-02  0.2232E-02  0.2098E-03  0.2094E-03
     -0.834  0.9064E-02  0.9045E-02  0.8538E-03  0.8521E-03
     -0.763  0.3439E-01  0.3433E-01  0.3298E-02  0.3291E-02
     -0.692  0.1038E+00  0.1037E+00  0.1067E-01  0.1066E-01
     -0.621  0.1763E+00  0.1763E+00  0.2320E-01  0.2318E-01
     -0.550  0.1291E+00  0.1293E+00  0.3237E-01  0.3237E-01
     -0.479  0.4858E-01  0.4866E-01  0.3583E-01  0.3582E-01
     -0.408  0.1468E-01  0.1470E-01  0.3687E-01  0.3687E-01
     -0.337  0.9490E-02  0.9483E-02  0.3754E-01  0.3754E-01
     -0.266  0.2598E-01  0.2593E-01  0.3939E-01  0.3939E-01
     -0.195  0.9616E-01  0.9598E-01  0.4624E-01  0.4622E-01
     -0.124  0.2962E+00  0.2958E+00  0.6729E-01  0.6724E-01
     -0.052  0.5246E+00  0.5245E+00  0.1046E+00  0.1045E+00
      0.019  0.4029E+00  0.4033E+00  0.1332E+00  0.1332E+00
      0.090  0.1552E+00  0.1555E+00  0.1442E+00  0.1442E+00
      0.161  0.4720E-01  0.4728E-01  0.1476E+00  0.1476E+00
      0.232  0.2932E-01  0.2931E-01  0.1497E+00  0.1497E+00
      0.303  0.7538E-01  0.7524E-01  0.1550E+00  0.1550E+00
      0.374  0.2402E+00  0.2399E+00  0.1721E+00  0.1721E+00
      0.445  0.4958E+00  0.4955E+00  0.2074E+00  0.2073E+00
      0.516  0.4586E+00  0.4590E+00  0.2400E+00  0.2399E+00
      0.587  0.2022E+00  0.2025E+00  0.2543E+00  0.2543E+00
      0.658  0.7712E-01  0.7719E-01  0.2598E+00  0.2598E+00
      0.729  0.8755E-01  0.8745E-01  0.2660E+00  0.2660E+00
      0.800  0.2041E+00  0.2039E+00  0.2805E+00  0.2805E+00
      0.871  0.3649E+00  0.3647E+00  0.3065E+00  0.3065E+00
      0.942  0.5433E+00  0.5431E+00  0.3452E+00  0.3451E+00
      1.013  0.5290E+00  0.5293E+00  0.3827E+00  0.3827E+00
      1.084  0.2654E+00  0.2658E+00  0.4016E+00  0.4016E+00
      1.155  0.1364E+00  0.1364E+00  0.4113E+00  0.4113E+00
      1.227  0.2502E+00  0.2498E+00  0.4291E+00  0.4291E+00
      1.298  0.7148E+00  0.7138E+00  0.4799E+00  0.4798E+00
      1.369  0.1315E+01  0.1314E+01  0.5734E+00  0.5733E+00
      1.440  0.1324E+01  0.1325E+01  0.6675E+00  0.6674E+00
      1.511  0.9561E+00  0.9567E+00  0.7355E+00  0.7354E+00
      1.582  0.7622E+00  0.7622E+00  0.7896E+00  0.7896E+00
      1.653  0.9503E+00  0.9499E+00  0.8572E+00  0.8571E+00
      1.724  0.1115E+01  0.1115E+01  0.9364E+00  0.9363E+00
      1.795  0.9283E+00  0.9284E+00  0.1002E+01  0.1002E+01
      1.866  0.1147E+01  0.1146E+01  0.1084E+01  0.1084E+01
      1.937  0.2194E+01  0.2192E+01  0.1240E+01  0.1240E+01
      2.008  0.3149E+01  0.3148E+01  0.1464E+01  0.1463E+01
      2.079  0.3275E+01  0.3276E+01  0.1697E+01  0.1696E+01
      2.150  0.3138E+01  0.3138E+01  0.1920E+01  0.1919E+01
      2.221  0.3643E+01  0.3642E+01  0.2179E+01  0.2178E+01
      2.292  0.3911E+01  0.3911E+01  0.2456E+01  0.2456E+01
      2.363  0.4080E+01  0.4079E+01  0.2747E+01  0.2746E+01
      2.434  0.4145E+01  0.4146E+01  0.3041E+01  0.3041E+01
      2.506  0.3700E+01  0.3701E+01  0.3304E+01  0.3304E+01
      2.577  0.3497E+01  0.3497E+01  0.3553E+01  0.3552E+01
      2.648  0.3484E+01  0.3483E+01  0.3801E+01  0.3800E+01
      2.719  0.4395E+01  0.4393E+01  0.4113E+01  0.4113E+01
      2.790  0.4320E+01  0.4321E+01  0.4421E+01  0.4420E+01
      2.861  0.3046E+01  0.3048E+01  0.4637E+01  0.4637E+01
      2.932  0.2483E+01  0.2483E+01  0.4814E+01  0.4814E+01
      3.003  0.2429E+01  0.2429E+01  0.4987E+01  0.4986E+01
      3.074  0.3063E+01  0.3062E+01  0.5204E+01  0.5204E+01
      3.145  0.3737E+01  0.3736E+01  0.5471E+01  0.5470E+01
      3.216  0.3931E+01  0.3931E+01  0.5750E+01  0.5750E+01
      3.287  0.3830E+01  0.3830E+01  0.6022E+01  0.6022E+01
      3.358  0.3800E+01  0.3800E+01  0.6292E+01  0.6292E+01
      3.429  0.3545E+01  0.3545E+01  0.6544E+01  0.6544E+01
      3.500  0.4398E+01  0.4395E+01  0.6857E+01  0.6857E+01
      3.571  0.5764E+01  0.5762E+01  0.7267E+01  0.7266E+01
      3.642  0.5876E+01  0.5878E+01  0.7685E+01  0.7684E+01
      3.714  0.4176E+01  0.4179E+01  0.7982E+01  0.7981E+01
      3.785  0.3478E+01  0.3477E+01  0.8229E+01  0.8228E+01
      3.856  0.5001E+01  0.4997E+01  0.8584E+01  0.8583E+01
      3.927  0.7028E+01  0.7025E+01  0.9084E+01  0.9083E+01
      3.998  0.6997E+01  0.6999E+01  0.9581E+01  0.9581E+01
      4.069  0.5891E+01  0.5892E+01  0.1000E+02  0.1000E+02
      4.140  0.5834E+01  0.5833E+01  0.1041E+02  0.1041E+02
      4.211  0.6611E+01  0.6610E+01  0.1088E+02  0.1088E+02
      4.282  0.6087E+01  0.6090E+01  0.1132E+02  0.1132E+02
      4.353  0.4606E+01  0.4609E+01  0.1165E+02  0.1165E+02
      4.424  0.3866E+01  0.3866E+01  0.1192E+02  0.1192E+02
      4.495  0.4058E+01  0.4057E+01  0.1221E+02  0.1221E+02
      4.566  0.4391E+01  0.4390E+01  0.1252E+02  0.1252E+02
      4.637  0.4601E+01  0.4601E+01  0.1285E+02  0.1285E+02
      4.708  0.4288E+01  0.4289E+01  0.1315E+02  0.1315E+02
      4.779  0.3681E+01  0.3682E+01  0.1342E+02  0.1342E+02
      4.850  0.3410E+01  0.3409E+01  0.1366E+02  0.1366E+02
      4.921  0.4809E+01  0.4805E+01  0.1400E+02  0.1400E+02
      4.993  0.5998E+01  0.5997E+01  0.1443E+02  0.1443E+02
      5.064  0.5749E+01  0.5750E+01  0.1484E+02  0.1483E+02
      5.135  0.4943E+01  0.4944E+01  0.1519E+02  0.1519E+02
      5.206  0.3944E+01  0.3946E+01  0.1547E+02  0.1547E+02
      5.277  0.3112E+01  0.3113E+01  0.1569E+02  0.1569E+02
      5.348  0.3117E+01  0.3117E+01  0.1591E+02  0.1591E+02
      5.419  0.3459E+01  0.3458E+01  0.1616E+02  0.1616E+02
      5.490  0.4241E+01  0.4239E+01  0.1646E+02  0.1646E+02
      5.561  0.4453E+01  0.4453E+01  0.1677E+02  0.1677E+02
      5.632  0.4994E+01  0.4992E+01  0.1713E+02  0.1713E+02
      5.703  0.5160E+01  0.5162E+01  0.1750E+02  0.1750E+02
      5.774  0.3617E+01  0.3621E+01  0.1775E+02  0.1775E+02
      5.845  0.2700E+01  0.2700E+01  0.1795E+02  0.1794E+02
      5.916  0.3689E+01  0.3685E+01  0.1821E+02  0.1821E+02
      5.987  0.6007E+01  0.6003E+01  0.1863E+02  0.1863E+02
      6.058  0.7072E+01  0.7073E+01  0.1914E+02  0.1914E+02
      6.129  0.6333E+01  0.6334E+01  0.1959E+02  0.1959E+02
      6.200  0.5333E+01  0.5336E+01  0.1997E+02  0.1997E+02
      6.272  0.4047E+01  0.4049E+01  0.2025E+02  0.2025E+02
      6.343  0.3573E+01  0.3573E+01  0.2051E+02  0.2051E+02
      6.414  0.3174E+01  0.3176E+01  0.2074E+02  0.2074E+02
      6.485  0.1979E+01  0.1982E+01  0.2088E+02  0.2088E+02
      6.556  0.1155E+01  0.1156E+01  0.2096E+02  0.2096E+02
      6.627  0.8340E+00  0.8341E+00  0.2102E+02  0.2102E+02
      6.698  0.1155E+01  0.1154E+01  0.2110E+02  0.2110E+02
      6.769  0.1634E+01  0.1634E+01  0.2122E+02  0.2122E+02
      6.840  0.1181E+01  0.1183E+01  0.2130E+02  0.2130E+02
      6.911  0.6441E+00  0.6446E+00  0.2135E+02  0.2135E+02
      6.982  0.6407E+00  0.6405E+00  0.2139E+02  0.2139E+02
      7.053  0.6559E+00  0.6560E+00  0.2144E+02  0.2144E+02
      7.124  0.6243E+00  0.6243E+00  0.2148E+02  0.2148E+02
      7.195  0.5824E+00  0.5827E+00  0.2152E+02  0.2152E+02
      7.266  0.3030E+00  0.3035E+00  0.2155E+02  0.2155E+02
      7.337  0.9609E-01  0.9632E-01  0.2155E+02  0.2155E+02
      7.408  0.2497E-01  0.2503E-01  0.2156E+02  0.2156E+02
      7.479  0.9197E-02  0.9204E-02  0.2156E+02  0.2156E+02
      7.551  0.1296E-01  0.1292E-01  0.2156E+02  0.2156E+02
      7.622  0.5280E-01  0.5265E-01  0.2156E+02  0.2156E+02
      7.693  0.2049E+00  0.2043E+00  0.2158E+02  0.2158E+02
      7.764  0.6673E+00  0.6659E+00  0.2162E+02  0.2162E+02
      7.835  0.1417E+01  0.1416E+01  0.2172E+02  0.2172E+02
      7.906  0.1747E+01  0.1747E+01  0.2185E+02  0.2185E+02
      7.977  0.1377E+01  0.1378E+01  0.2195E+02  0.2195E+02
      8.048  0.7445E+00  0.7454E+00  0.2200E+02  0.2200E+02
      8.119  0.6076E+00  0.6073E+00  0.2204E+02  0.2204E+02
      8.190  0.7624E+00  0.7623E+00  0.2210E+02  0.2210E+02
      8.261  0.9074E+00  0.9071E+00  0.2216E+02  0.2216E+02
      8.332  0.1151E+01  0.1151E+01  0.2224E+02  0.2224E+02
      8.403  0.8435E+00  0.8445E+00  0.2230E+02  0.2230E+02
      8.474  0.3223E+00  0.3230E+00  0.2232E+02  0.2232E+02
      8.545  0.8920E-01  0.8943E-01  0.2233E+02  0.2233E+02
      8.616  0.2255E-01  0.2260E-01  0.2233E+02  0.2233E+02
      8.687  0.7360E-02  0.7369E-02  0.2233E+02  0.2233E+02
      8.758  0.8360E-02  0.8339E-02  0.2233E+02  0.2233E+02
      8.830  0.3416E-01  0.3407E-01  0.2234E+02  0.2234E+02
      8.901  0.1346E+00  0.1343E+00  0.2235E+02  0.2235E+02
      8.972  0.4520E+00  0.4511E+00  0.2238E+02  0.2238E+02
      9.043  0.9775E+00  0.9768E+00  0.2245E+02  0.2245E+02
      9.114  0.9868E+00  0.9874E+00  0.2252E+02  0.2252E+02
      9.185  0.5893E+00  0.5897E+00  0.2256E+02  0.2256E+02
      9.256  0.6554E+00  0.6546E+00  0.2261E+02  0.2261E+02
      9.327  0.1082E+01  0.1082E+01  0.2268E+02  0.2268E+02
      9.398  0.1086E+01  0.1087E+01  0.2276E+02  0.2276E+02
      9.469  0.9895E+00  0.9894E+00  0.2283E+02  0.2283E+02
      9.540  0.1164E+01  0.1164E+01  0.2291E+02  0.2291E+02
      9.611  0.8084E+00  0.8094E+00  0.2297E+02  0.2297E+02
      9.682  0.2996E+00  0.3002E+00  0.2299E+02  0.2299E+02
      9.753  0.8148E-01  0.8166E-01  0.2300E+02  0.2300E+02
      9.824  0.2495E-01  0.2498E-01  0.2300E+02  0.2300E+02
      9.895  0.2507E-01  0.2503E-01  0.2300E+02  0.2300E+02
      9.966  0.8093E-01  0.8072E-01  0.2301E+02  0.2301E+02
     10.037  0.2946E+00  0.2939E+00  0.2303E+02  0.2303E+02
     10.109  0.7846E+00  0.7835E+00  0.2308E+02  0.2308E+02
     10.180  0.1057E+01  0.1057E+01  0.2316E+02  0.2316E+02
     10.251  0.6186E+00  0.6196E+00  0.2320E+02  0.2320E+02
     10.322  0.2240E+00  0.2244E+00  0.2322E+02  0.2322E+02
     10.393  0.1425E+00  0.1425E+00  0.2323E+02  0.2323E+02
     10.464  0.3511E+00  0.3504E+00  0.2325E+02  0.2325E+02
     10.535  0.1019E+01  0.1018E+01  0.2333E+02  0.2333E+02
     10.606  0.1862E+01  0.1862E+01  0.2346E+02  0.2346E+02
     10.677  0.1733E+01  0.1735E+01  0.2358E+02  0.2358E+02
     10.748  0.8399E+00  0.8410E+00  0.2364E+02  0.2364E+02
     10.819  0.2740E+00  0.2744E+00  0.2366E+02  0.2366E+02
     10.890  0.1264E+00  0.1264E+00  0.2367E+02  0.2367E+02
     10.961  0.2206E+00  0.2204E+00  0.2369E+02  0.2369E+02
     11.032  0.4716E+00  0.4713E+00  0.2372E+02  0.2372E+02
     11.103  0.5284E+00  0.5286E+00  0.2376E+02  0.2376E+02
     11.174  0.3797E+00  0.3798E+00  0.2378E+02  0.2378E+02
     11.245  0.5571E+00  0.5565E+00  0.2382E+02  0.2382E+02
     11.317  0.1088E+01  0.1088E+01  0.2390E+02  0.2390E+02
     11.388  0.1278E+01  0.1278E+01  0.2399E+02  0.2399E+02
     11.459  0.1330E+01  0.1330E+01  0.2409E+02  0.2409E+02
     11.530  0.1516E+01  0.1516E+01  0.2419E+02  0.2419E+02
     11.601  0.1473E+01  0.1474E+01  0.2430E+02  0.2430E+02
     11.672  0.1217E+01  0.1218E+01  0.2439E+02  0.2439E+02
     11.743  0.5807E+00  0.5814E+00  0.2443E+02  0.2443E+02
     11.814  0.1783E+00  0.1785E+00  0.2444E+02  0.2444E+02
     11.885  0.4306E-01  0.4312E-01  0.2444E+02  0.2444E+02
     11.956  0.1072E-01  0.1074E-01  0.2444E+02  0.2444E+02
     12.027  0.4489E-03  0.4479E-03  0.2444E+02  0.2444E+02
     12.098  0.2005E-02  0.2000E-02  0.2444E+02  0.2444E+02
     12.169  0.8108E-02  0.8089E-02  0.2445E+02  0.2445E+02
     12.240  0.3279E-01  0.3271E-01  0.2445E+02  0.2445E+02
     12.311  0.1236E+00  0.1233E+00  0.2446E+02  0.2446E+02
     12.382  0.3674E+00  0.3669E+00  0.2448E+02  0.2448E+02
     12.453  0.6282E+00  0.6280E+00  0.2453E+02  0.2453E+02
     12.524  0.5412E+00  0.5416E+00  0.2457E+02  0.2457E+02
     12.596  0.2940E+00  0.2944E+00  0.2459E+02  0.2459E+02
     12.667  0.1929E+00  0.1929E+00  0.2460E+02  0.2460E+02
     12.738  0.3923E+00  0.3916E+00  0.2463E+02  0.2463E+02
     12.809  0.9404E+00  0.9394E+00  0.2469E+02  0.2469E+02
     12.880  0.1286E+01  0.1286E+01  0.2479E+02  0.2479E+02
     12.951  0.1265E+01  0.1264E+01  0.2488E+02  0.2488E+02
     13.022  0.1251E+01  0.1252E+01  0.2497E+02  0.2496E+02
     13.093  0.7908E+00  0.7920E+00  0.2502E+02  0.2502E+02
     13.164  0.5238E+00  0.5239E+00  0.2506E+02  0.2506E+02
     13.235  0.8667E+00  0.8659E+00  0.2512E+02  0.2512E+02
     13.306  0.1545E+01  0.1544E+01  0.2523E+02  0.2523E+02
     13.377  0.1992E+01  0.1993E+01  0.2537E+02  0.2537E+02
     13.448  0.1753E+01  0.1754E+01  0.2550E+02  0.2550E+02
     13.519  0.9383E+00  0.9393E+00  0.2556E+02  0.2556E+02
     13.590  0.3220E+00  0.3224E+00  0.2559E+02  0.2559E+02
     13.661  0.1235E+00  0.1236E+00  0.2559E+02  0.2559E+02
     13.732  0.1733E+00  0.1731E+00  0.2561E+02  0.2561E+02
     13.803  0.4511E+00  0.4506E+00  0.2564E+02  0.2564E+02
     13.875  0.7797E+00  0.7792E+00  0.2569E+02  0.2569E+02
     13.946  0.1037E+01  0.1036E+01  0.2577E+02  0.2577E+02
     14.017  0.1409E+01  0.1408E+01  0.2587E+02  0.2587E+02
     14.088  0.1360E+01  0.1361E+01  0.2597E+02  0.2597E+02
     14.159  0.7071E+00  0.7082E+00  0.2602E+02  0.2602E+02
     14.230  0.2270E+00  0.2275E+00  0.2603E+02  0.2603E+02
     14.301  0.6342E-01  0.6354E-01  0.2604E+02  0.2604E+02
     14.372  0.3312E-01  0.3310E-01  0.2604E+02  0.2604E+02
     14.443  0.7773E-01  0.7755E-01  0.2604E+02  0.2604E+02
     14.514  0.2540E+00  0.2535E+00  0.2606E+02  0.2606E+02
     14.585  0.5158E+00  0.5154E+00  0.2610E+02  0.2610E+02
     14.656  0.4986E+00  0.4990E+00  0.2613E+02  0.2613E+02
     14.727  0.3692E+00  0.3692E+00  0.2616E+02  0.2616E+02
     14.798  0.4929E+00  0.4926E+00  0.2620E+02  0.2620E+02
     14.869  0.5218E+00  0.5221E+00  0.2623E+02  0.2623E+02
     14.940  0.2642E+00  0.2646E+00  0.2625E+02  0.2625E+02
     15.011  0.8691E-01  0.8707E-01  0.2626E+02  0.2626E+02
     15.082  0.4844E-01  0.4843E-01  0.2626E+02  0.2626E+02
     15.154  0.1164E+00  0.1162E+00  0.2627E+02  0.2627E+02
     15.225  0.4177E+00  0.4169E+00  0.2630E+02  0.2630E+02
     15.296  0.1231E+01  0.1230E+01  0.2639E+02  0.2639E+02
     15.367  0.2136E+01  0.2135E+01  0.2654E+02  0.2654E+02
     15.438  0.1979E+01  0.1980E+01  0.2668E+02  0.2668E+02
     15.509  0.1556E+01  0.1556E+01  0.2679E+02  0.2679E+02
     15.580  0.1181E+01  0.1182E+01  0.2687E+02  0.2687E+02
     15.651  0.5511E+00  0.5520E+00  0.2691E+02  0.2691E+02
     15.722  0.2432E+00  0.2433E+00  0.2693E+02  0.2693E+02
     15.793  0.3093E+00  0.3087E+00  0.2695E+02  0.2695E+02
     15.864  0.5270E+00  0.5267E+00  0.2699E+02  0.2699E+02
     15.935  0.4433E+00  0.4439E+00  0.2702E+02  0.2702E+02
     16.006  0.2346E+00  0.2349E+00  0.2704E+02  0.2704E+02
     16.077  0.2831E+00  0.2825E+00  0.2706E+02  0.2706E+02
     16.148  0.7009E+00  0.6991E+00  0.2711E+02  0.2711E+02
     16.219  0.1136E+01  0.1133E+01  0.2719E+02  0.2719E+02
     16.290  0.9768E+00  0.9671E+00  0.2726E+02  0.2726E+02
     16.361  0.9717E+00  0.9520E+00  0.2733E+02  0.2732E+02
     16.433  0.1146E+01  0.1145E+01  0.2741E+02  0.2741E+02
     16.504  0.7422E+00  0.7623E+00  0.2746E+02  0.2746E+02
     16.575  0.3806E+00  0.3913E+00  0.2749E+02  0.2749E+02
     16.646  0.4410E+00  0.4438E+00  0.2752E+02  0.2752E+02
     16.717  0.5512E+00  0.5525E+00  0.2756E+02  0.2756E+02
     16.788  0.3434E+00  0.3458E+00  0.2758E+02  0.2758E+02
     16.859  0.1758E+00  0.1822E+00  0.2760E+02  0.2760E+02
     16.930  0.2614E+00  0.2774E+00  0.2761E+02  0.2762E+02
     17.001  0.5613E+00  0.5702E+00  0.2765E+02  0.2766E+02
     17.072  0.7822E+00  0.7459E+00  0.2771E+02  0.2771E+02
     17.143  0.1014E+01  0.9640E+00  0.2778E+02  0.2778E+02
     17.214  0.1131E+01  0.1132E+01  0.2786E+02  0.2786E+02
     17.285  0.6626E+00  0.6938E+00  0.2791E+02  0.2791E+02
     17.356  0.3118E+00  0.3269E+00  0.2793E+02  0.2793E+02
     17.427  0.2296E+00  0.2341E+00  0.2795E+02  0.2795E+02
     17.498  0.1384E+00  0.1397E+00  0.2796E+02  0.2796E+02
     17.569  0.4586E-01  0.4937E-01  0.2796E+02  0.2796E+02
     17.641  0.1248E-01  0.1251E-01  0.2796E+02  0.2796E+02
     17.712  0.3106E-02  0.3113E-02  0.2796E+02  0.2796E+02
     17.783  0.7556E-03  0.7572E-03  0.2796E+02  0.2796E+02
     17.854  0.0000E+00  0.0000E+00  0.2796E+02  0.2796E+02
     17.925  0.0000E+00  0.0000E+00  0.2796E+02  0.2796E+02
     17.996  0.0000E+00  0.0000E+00  0.2796E+02  0.2796E+02
     18.067  0.0000E+00  0.0000E+00  0.2796E+02  0.2796E+02
     18.138  0.0000E+00  0.0000E+00  0.2796E+02  0.2796E+02
     18.209  0.0000E+00  0.0000E+00  0.2796E+02  0.2796E+02
     18.280  0.6390E-04  0.6158E-04  0.2796E+02  0.2796E+02
     18.351  0.2007E-03  0.1934E-03  0.2796E+02  0.2796E+02
     18.422  0.8294E-03  0.7994E-03  0.2796E+02  0.2796E+02
     18.493  0.3407E-02  0.3285E-02  0.2796E+02  0.2796E+02
     18.564  0.1365E-01  0.1317E-01  0.2796E+02  0.2796E+02
     18.635  0.4961E-01  0.4810E-01  0.2797E+02  0.2797E+02
     18.706  0.1315E+00  0.1291E+00  0.2798E+02  0.2798E+02
     18.777  0.1757E+00  0.1763E+00  0.2799E+02  0.2799E+02
     18.848  0.1014E+00  0.1038E+00  0.2800E+02  0.2800E+02
     18.920  0.3328E-01  0.3439E-01  0.2800E+02  0.2800E+02
     18.991  0.8744E-02  0.9064E-02  0.2800E+02  0.2800E+02
     19.062  0.2156E-02  0.2237E-02  0.2800E+02  0.2800E+02
     19.133  0.0000E+00  0.0000E+00  0.2800E+02  0.2800E+02
     19.204  0.0000E+00  0.0000E+00  0.2800E+02  0.2800E+02
     19.275  0.0000E+00  0.0000E+00  0.2800E+02  0.2800E+02
     19.346  0.0000E+00  0.0000E+00  0.2800E+02  0.2800E+02
     19.417  0.0000E+00  0.0000E+00  0.2800E+02  0.2800E+02
     19.488  0.0000E+00  0.0000E+00  0.2800E+02  0.2800E+02
     19.559  0.0000E+00  0.0000E+00  0.2800E+02  0.2800E+02
     19.630  0.0000E+00  0.0000E+00  0.2800E+02  0.2800E+02
     19.701  0.0000E+00  0.0000E+00  0.2800E+02  0.2800E+02
     19.70113039     -1.61570466  301      8.05129020      1.00000000
     -1.616  0.0000E+00  0.0000E+00  0.0000E+00  0.0000E+00  0.0000E+00  0.0000E+00  0.0000E+00  0.0000E+00  0.0000E+00  0.0000E+00  0.0000E+00  0.0000E+00  0.0000E+00  0.0000E+00  0.0000E+00  0.0000E+00  0.0000E+00  0.0000E+00
     -1.545  0.0000E+00  0.0000E+00  0.0000E+00  0.0000E+00  0.0000E+00  0.0000E+00  0.0000E+00  0.0000E+00  0.0000E+00  0.0000E+00  0.0000E+00  0.0000E+00  0.0000E+00  0.0000E+00  0.0000E+00  0.0000E+00  0.0000E+00  0.0000E+00
     -1.474  0.0000E+00  0.0000E+00  0.0000E+00  0.0000E+00  0.0000E+00  0.0000E+00  0.0000E+00  0.0000E+00  0.0000E+00  0.0000E+00  0.0000E+00  0.0000E+00  0.0000E+00  0.0000E+00  0.0000E+00  0.0000E+00  0.0000E+00  0.0000E+00
     -1.403  0.0000E+00  0.0000E+00  0.0000E+00  0.0000E+00  0.0000E+00  0.0000E+00  0.0000E+00  0.0000E+00  0.0000E+00  0.0000E+00  0.0000E+00  0.0000E+00  0.0000E+00  0.0000E+00  0.0000E+00  0.0000E+00  0.0000E+00  0.0000E+00
     -1.331  0.0000E+00  0.0000E+00  0.0000E+00  0.0000E+00  0.0000E+00  0.0000E+00  0.0000E+00  0.0000E+00  0.0000E+00  0.0000E+00  0.0000E+00  0.0000E+00  0.0000E+00  0.0000E+00  0.0000E+00  0.0000E+00  0.0000E+00  0.0000E+00
     -1.260  0.0000E+00  0.0000E+00  0.0000E+00  0.0000E+00  0.0000E+00  0.0000E+00  0.0000E+00  0.0000E+00  0.0000E+00  0.0000E+00  0.0000E+00  0.0000E+00  0.0000E+00  0.0000E+00  0.0000E+00  0.0000E+00  0.0000E+00  0.0000E+00
     -1.189  0.0000E+00  0.0000E+00  0.0000E+00  0.0000E+00  0.0000E+00  0.0000E+00  0.0000E+00  0.0000E+00  0.0000E+00  0.0000E+00  0.0000E+00  0.0000E+00  0.0000E+00  0.0000E+00  0.0000E+00  0.0000E+00  0.0000E+00  0.0000E+00
     -1.118  0.0000E+00  0.0000E+00  0.0000E+00  0.0000E+00  0.0000E+00  0.0000E+00  0.0000E+00  0.0000E+00  0.0000E+00  0.0000E+00  0.0000E+00  0.0000E+00  0.0000E+00  0.0000E+00  0.0000E+00  0.0000E+00  0.0000E+00  0.0000E+00
     -1.047  0.2395E-04  0.2390E-04  0.1158E-06  0.1155E-06  0.1158E-06  0.1155E-06  0.1158E-06  0.1155E-06  0.1031E-07  0.1029E-07  0.1031E-07  0.1029E-07  0.7451E-22  0.9331E-23  0.1031E-07  0.1029E-07  0.7451E-22  0.9331E-23
     -0.976  0.7515E-04  0.7499E-04  0.3632E-06  0.3625E-06  0.3632E-06  0.3625E-06  0.3632E-06  0.3625E-06  0.3234E-07  0.3228E-07  0.3234E-07  0.3228E-07  0.2338E-21  0.2927E-22  0.3234E-07  0.3228E-07  0.2338E-21  0.2927E-22
     -0.905  0.3096E-03  0.3089E-03  0.1496E-05  0.1493E-05  0.1496E-05  0.1493E-05  0.1496E-05  0.1493E-05  0.1332E-06  0.1330E-06  0.1332E-06  0.1330E-06  0.9631E-21  0.1206E-21  0.1332E-06  0.1330E-06  0.9631E-21  0.1206E-21
     -0.834  0.1254E-02  0.1252E-02  0.6063E-05  0.6050E-05  0.6063E-05  0.6050E-05  0.6063E-05  0.6050E-05  0.5398E-06  0.5388E-06  0.5398E-06  0.5388E-06  0.3902E-20  0.4887E-21  0.5398E-06  0.5388E-06  0.3902E-20  0.4887E-21
     -0.763  0.4760E-02  0.4751E-02  0.2300E-04  0.2296E-04  0.2300E-04  0.2296E-04  0.2300E-04  0.2296E-04  0.2048E-05  0.2045E-05  0.2048E-05  0.2045E-05  0.1481E-19  0.1855E-20  0.2048E-05  0.2045E-05  0.1481E-19  0.1855E-20
     -0.692  0.1436E-01  0.1435E-01  0.6943E-04  0.6934E-04  0.6943E-04  0.6934E-04  0.6943E-04  0.6934E-04  0.6182E-05  0.6174E-05  0.6182E-05  0.6174E-05  0.4469E-19  0.5600E-20  0.6182E-05  0.6174E-05  0.4469E-19  0.5600E-20
     -0.621  0.2440E-01  0.2440E-01  0.1179E-03  0.1179E-03  0.1179E-03  0.1179E-03  0.1179E-03  0.1179E-03  0.1050E-04  0.1050E-04  0.1050E-04  0.1050E-04  0.7591E-19  0.9523E-20  0.1050E-04  0.1050E-04  0.7591E-19  0.9523E-20
     -0.550  0.1787E-01  0.1789E-01  0.8637E-04  0.8646E-04  0.8637E-04  0.8646E-04  0.8637E-04  0.8646E-04  0.7691E-05  0.7699E-05  0.7691E-05  0.7699E-05  0.5559E-19  0.6983E-20  0.7691E-05  0.7699E-05  0.5559E-19  0.6983E-20
     -0.479  0.6720E-02  0.6731E-02  0.3330E-04  0.3335E-04  0.3330E-04  0.3335E-04  0.3330E-04  0.3335E-04  0.3065E-05  0.3070E-05  0.3065E-05  0.3070E-05  0.1744E-06  0.1740E-06  0.3065E-05  0.3070E-05  0.1744E-06  0.1740E-06
     -0.408  0.2022E-02  0.2025E-02  0.1233E-04  0.1234E-04  0.1233E-04  0.1234E-04  0.1233E-04  0.1234E-04  0.1414E-05  0.1414E-05  0.1414E-05  0.1414E-05  0.5471E-06  0.5460E-06  0.1414E-05  0.1414E-05  0.5471E-06  0.5460E-06
     -0.337  0.1273E-02  0.1272E-02  0.1670E-04  0.1667E-04  0.1670E-04  0.1667E-04  0.1670E-04  0.1667E-04  0.2789E-05  0.2784E-05  0.2789E-05  0.2784E-05  0.2255E-05  0.2250E-05  0.2789E-05  0.2784E-05  0.2255E-05  0.2250E-05
     -0.266  0.3432E-02  0.3425E-02  0.5939E-04  0.5927E-04  0.5939E-04  0.5927E-04  0.5939E-04  0.5927E-04  0.1057E-04  0.1055E-04  0.1057E-04  0.1055E-04  0.9151E-05  0.9132E-05  0.1057E-04  0.1055E-04  0.9151E-05  0.9132E-05
     -0.195  0.1268E-01  0.1266E-01  0.2247E-03  0.2243E-03  0.2247E-03  0.2243E-03  0.2247E-03  0.2243E-03  0.4019E-04  0.4012E-04  0.4019E-04  0.4012E-04  0.3494E-04  0.3488E-04  0.4019E-04  0.4012E-04  0.3494E-04  0.3488E-04
     -0.124  0.3906E-01  0.3901E-01  0.6922E-03  0.6913E-03  0.6922E-03  0.6913E-03  0.6922E-03  0.6913E-03  0.1238E-03  0.1236E-03  0.1238E-03  0.1236E-03  0.1076E-03  0.1075E-03  0.1238E-03  0.1236E-03  0.1076E-03  0.1075E-03
     -0.052  0.6919E-01  0.6917E-01  0.1226E-02  0.1226E-02  0.1226E-02  0.1226E-02  0.1226E-02  0.1226E-02  0.2193E-03  0.2192E-03  0.2193E-03  0.2192E-03  0.1906E-03  0.1906E-03  0.2193E-03  0.2192E-03  0.1906E-03  0.1906E-03
      0.019  0.5313E-01  0.5319E-01  0.9421E-03  0.9430E-03  0.9421E-03  0.9430E-03  0.9421E-03  0.9430E-03  0.1692E-03  0.1693E-03  0.1692E-03  0.1693E-03  0.1464E-03  0.1465E-03  0.1692E-03  0.1693E-03  0.1464E-03  0.1465E-03
      0.090  0.2046E-01  0.2050E-01  0.3642E-03  0.3648E-03  0.3642E-03  0.3648E-03  0.3642E-03  0.3648E-03  0.6725E-04  0.6737E-04  0.6725E-04  0.6737E-04  0.5629E-04  0.5639E-04  0.6725E-04  0.6737E-04  0.5629E-04  0.5639E-04
      0.161  0.6189E-02  0.6199E-02  0.1159E-03  0.1161E-03  0.1159E-03  0.1161E-03  0.1159E-03  0.1161E-03  0.2950E-04  0.2952E-04  0.2950E-04  0.2952E-04  0.1664E-04  0.1667E-04  0.2950E-04  0.2952E-04  0.1664E-04  0.1667E-04
      0.232  0.3722E-02  0.3720E-02  0.9128E-04  0.9119E-04  0.9128E-04  0.9119E-04  0.9128E-04  0.9119E-04  0.5214E-04  0.5205E-04  0.5214E-04  0.5205E-04  0.8572E-05  0.8571E-05  0.5214E-04  0.5205E-04  0.8572E-05  0.8571E-05
      0.303  0.9372E-02  0.9356E-02  0.2648E-03  0.2643E-03  0.2648E-03  0.2643E-03  0.2648E-03  0.2643E-03  0.1870E-03  0.1867E-03  0.1870E-03  0.1867E-03  0.1927E-04  0.1923E-04  0.1870E-03  0.1867E-03  0.1927E-04  0.1923E-04
      0.374  0.2981E-01  0.2976E-01  0.8541E-03  0.8528E-03  0.8541E-03  0.8528E-03  0.8541E-03  0.8528E-03  0.6142E-03  0.6133E-03  0.6142E-03  0.6133E-03  0.6046E-04  0.6037E-04  0.6142E-03  0.6133E-03  0.6046E-04  0.6037E-04
      0.445  0.6151E-01  0.6148E-01  0.1763E-02  0.1762E-02  0.1763E-02  0.1762E-02  0.1763E-02  0.1762E-02  0.1268E-02  0.1268E-02  0.1268E-02  0.1268E-02  0.1248E-03  0.1247E-03  0.1268E-02  0.1268E-02  0.1248E-03  0.1247E-03
      0.516  0.5689E-01  0.5693E-01  0.1631E-02  0.1632E-02  0.1631E-02  0.1632E-02  0.1631E-02  0.1632E-02  0.1178E-02  0.1179E-02  0.1178E-02  0.1179E-02  0.1166E-03  0.1166E-03  0.1178E-02  0.1179E-02  0.1166E-03  0.1166E-03
      0.587  0.2502E-01  0.2506E-01  0.7203E-03  0.7214E-03  0.7203E-03  0.7214E-03  0.7203E-03  0.7214E-03  0.5440E-03  0.5447E-03  0.5440E-03  0.5447E-03  0.5412E-04  0.5419E-04  0.5440E-03  0.5447E-03  0.5412E-04  0.5419E-04
      0.658  0.9320E-02  0.9330E-02  0.2800E-03  0.2802E-03  0.2800E-03  0.2802E-03  0.2800E-03  0.2802E-03  0.3062E-03  0.3062E-03  0.3062E-03  0.3062E-03  0.3286E-04  0.3285E-04  0.3062E-03  0.3062E-03  0.3286E-04  0.3285E-04
      0.729  0.9967E-02  0.9956E-02  0.3347E-03  0.3343E-03  0.3347E-03  0.3343E-03  0.3347E-03  0.3343E-03  0.6070E-03  0.6061E-03  0.6070E-03  0.6061E-03  0.7944E-04  0.7929E-04  0.6070E-03  0.6061E-03  0.7944E-04  0.7929E-04
      0.800  0.2293E-01  0.2290E-01  0.8145E-03  0.8135E-03  0.8145E-03  0.8135E-03  0.8145E-03  0.8135E-03  0.1433E-02  0.1432E-02  0.1433E-02  0.1432E-02  0.3008E-03  0.3001E-03  0.1433E-02  0.1432E-02  0.3008E-03  0.3001E-03
      0.871  0.4122E-01  0.4119E-01  0.1591E-02  0.1590E-02  0.1591E-02  0.1590E-02  0.1591E-02  0.1590E-02  0.1838E-02  0.1839E-02  0.1838E-02  0.1839E-02  0.1041E-02  0.1040E-02  0.1838E-02  0.1839E-02  0.1041E-02  0.1040E-02
      0.942  0.6192E-01  0.6190E-01  0.2605E-02  0.2603E-02  0.2605E-02  0.2603E-02  0.2605E-02  0.2603E-02  0.1394E-02  0.1395E-02  0.1394E-02  0.1395E-02  0.2435E-02  0.2433E-02  0.1394E-02  0.1395E-02  0.2435E-02  0.2433E-02
      1.013  0.6045E-01  0.6049E-01  0.2619E-02  0.2621E-02  0.2619E-02  0.2621E-02  0.2619E-02  0.2621E-02  0.9073E-03  0.9081E-03  0.9073E-03  0.9081E-03  0.2676E-02  0.2677E-02  0.9073E-03  0.9081E-03  0.2676E-02  0.2677E-02
      1.084  0.3019E-01  0.3023E-01  0.1326E-02  0.1327E-02  0.1326E-02  0.1327E-02  0.1326E-02  0.1327E-02  0.5033E-03  0.5037E-03  0.5033E-03  0.5037E-03  0.1345E-02  0.1347E-02  0.5033E-03  0.5037E-03  0.1345E-02  0.1347E-02
      1.155  0.1489E-01  0.1490E-01  0.6916E-03  0.6917E-03  0.6916E-03  0.6917E-03  0.6916E-03  0.6917E-03  0.6577E-03  0.6567E-03  0.6577E-03  0.6567E-03  0.5696E-03  0.5700E-03  0.6577E-03  0.6567E-03  0.5696E-03  0.5700E-03
      1.227  0.2586E-01  0.2582E-01  0.1287E-02  0.1285E-02  0.1287E-02  0.1285E-02  0.1287E-02  0.1285E-02  0.2150E-02  0.2146E-02  0.2150E-02  0.2146E-02  0.7594E-03  0.7583E-03  0.2150E-02  0.2146E-02  0.7594E-03  0.7583E-03
      1.298  0.7290E-01  0.7280E-01  0.3647E-02  0.3642E-02  0.3647E-02  0.3642E-02  0.3647E-02  0.3642E-02  0.6818E-02  0.6808E-02  0.6818E-02  0.6808E-02  0.2013E-02  0.2010E-02  0.6818E-02  0.6808E-02  0.2013E-02  0.2010E-02
      1.369  0.1314E+00  0.1313E+00  0.6459E-02  0.6457E-02  0.6459E-02  0.6457E-02  0.6459E-02  0.6457E-02  0.1455E-01  0.1454E-01  0.1455E-01  0.1454E-01  0.3458E-02  0.3457E-02  0.1455E-01  0.1454E-01  0.3458E-02  0.3457E-02
      1.440  0.1245E+00  0.1246E+00  0.5775E-02  0.5778E-02  0.5775E-02  0.5778E-02  0.5775E-02  0.5778E-02  0.2037E-01  0.2037E-01  0.2037E-01  0.2037E-01  0.2861E-02  0.2863E-02  0.2037E-01  0.2037E-01  0.2861E-02  0.2863E-02
      1.511  0.7911E-01  0.7917E-01  0.3234E-02  0.3237E-02  0.3234E-02  0.3237E-02  0.3234E-02  0.3237E-02  0.2227E-01  0.2227E-01  0.2227E-01  0.2227E-01  0.1438E-02  0.1439E-02  0.2227E-01  0.2227E-01  0.1438E-02  0.1439E-02
      1.582  0.5039E-01  0.5041E-01  0.1619E-02  0.1620E-02  0.1619E-02  0.1620E-02  0.1619E-02  0.1620E-02  0.2621E-01  0.2620E-01  0.2621E-01  0.2620E-01  0.6707E-03  0.6710E-03  0.2621E-01  0.2620E-01  0.6707E-03  0.6710E-03
      1.653  0.5277E-01  0.5276E-01  0.1417E-02  0.1417E-02  0.1417E-02  0.1417E-02  0.1417E-02  0.1417E-02  0.3877E-01  0.3874E-01  0.3877E-01  0.3874E-01  0.9555E-03  0.9536E-03  0.3877E-01  0.3874E-01  0.9555E-03  0.9536E-03
      1.724  0.5643E-01  0.5644E-01  0.1436E-02  0.1436E-02  0.1436E-02  0.1436E-02  0.1436E-02  0.1436E-02  0.4727E-01  0.4728E-01  0.4727E-01  0.4728E-01  0.3105E-02  0.3097E-02  0.4727E-01  0.4728E-01  0.3105E-02  0.3097E-02
      1.795  0.4427E-01  0.4428E-01  0.1445E-02  0.1444E-02  0.1445E-02  0.1444E-02  0.1445E-02  0.1444E-02  0.3392E-01  0.3394E-01  0.3392E-01  0.3394E-01  0.1151E-01  0.1148E-01  0.3392E-01  0.3394E-01  0.1151E-01  0.1148E-01
      1.866  0.5468E-01  0.5463E-01  0.2906E-02  0.2902E-02  0.2906E-02  0.2902E-02  0.2906E-02  0.2902E-02  0.2401E-01  0.2400E-01  0.2401E-01  0.2400E-01  0.3668E-01  0.3661E-01  0.2401E-01  0.2400E-01  0.3668E-01  0.3661E-01
      1.937  0.1043E+00  0.1042E+00  0.6108E-02  0.6104E-02  0.6108E-02  0.6104E-02  0.6108E-02  0.6104E-02  0.4268E-01  0.4262E-01  0.4268E-01  0.4262E-01  0.7374E-01  0.7368E-01  0.4268E-01  0.4262E-01  0.7374E-01  0.7368E-01