   4   4   1   0
  0.2206795E+02  0.4452535E-09  0.4452535E-09  0.4452535E-09  0.5000000E-15
  1.000000000000000E-004
  CAR 
 unknown system                          
     16.12374203     -2.34322884  301      5.70363095      1.00000000
     -2.343  0.0000E+00  0.0000E+00  0.0000E+00  0.0000E+00
     -2.282  0.0000E+00  0.0000E+00  0.0000E+00  0.0000E+00
     -2.220  0.0000E+00  0.0000E+00  0.0000E+00  0.0000E+00
     -2.159  0.0000E+00  0.0000E+00  0.0000E+00  0.0000E+00
     -2.097  0.0000E+00  0.0000E+00  0.0000E+00  0.0000E+00
     -2.035  0.0000E+00  0.0000E+00  0.0000E+00  0.0000E+00
     -1.974  0.0000E+00  0.0000E+00  0.0000E+00  0.0000E+00
     -1.912  0.1702E-03  0.1693E-03  0.1048E-04  0.1042E-04
     -1.851  0.4123E-03  0.4101E-03  0.3586E-04  0.3566E-04
     -1.789  0.1408E-02  0.1400E-02  0.1225E-03  0.1219E-03
     -1.728  0.4773E-02  0.4748E-02  0.4164E-03  0.4141E-03
     -1.666  0.1579E-01  0.1571E-01  0.1388E-02  0.1381E-02
     -1.605  0.4825E-01  0.4803E-01  0.4359E-02  0.4338E-02
     -1.543  0.1179E+00  0.1175E+00  0.1161E-01  0.1157E-01
     -1.481  0.1784E+00  0.1783E+00  0.2260E-01  0.2255E-01
     -1.420  0.1405E+00  0.1408E+00  0.3124E-01  0.3122E-01
     -1.358  0.6473E-01  0.6499E-01  0.3523E-01  0.3522E-01
     -1.297  0.2575E-01  0.2584E-01  0.3681E-01  0.3681E-01
     -1.235  0.2049E-01  0.2045E-01  0.3807E-01  0.3807E-01
     -1.174  0.4784E-01  0.4760E-01  0.4102E-01  0.4100E-01
     -1.112  0.1413E+00  0.1406E+00  0.4971E-01  0.4965E-01
     -1.051  0.3468E+00  0.3457E+00  0.7108E-01  0.7095E-01
     -0.989  0.5341E+00  0.5338E+00  0.1040E+00  0.1038E+00
     -0.927  0.4272E+00  0.4282E+00  0.1303E+00  0.1302E+00
     -0.866  0.1987E+00  0.1996E+00  0.1425E+00  0.1425E+00
     -0.804  0.7738E-01  0.7767E-01  0.1472E+00  0.1472E+00
     -0.743  0.5502E-01  0.5495E-01  0.1506E+00  0.1506E+00
     -0.681  0.1147E+00  0.1142E+00  0.1577E+00  0.1576E+00
     -0.620  0.2898E+00  0.2887E+00  0.1755E+00  0.1754E+00
     -0.558  0.5099E+00  0.5092E+00  0.2070E+00  0.2068E+00
     -0.497  0.4806E+00  0.4814E+00  0.2365E+00  0.2364E+00
     -0.435  0.2543E+00  0.2553E+00  0.2522E+00  0.2522E+00
     -0.373  0.1181E+00  0.1184E+00  0.2595E+00  0.2594E+00
     -0.312  0.1178E+00  0.1175E+00  0.2667E+00  0.2667E+00
     -0.250  0.2309E+00  0.2301E+00  0.2809E+00  0.2808E+00
     -0.189  0.4090E+00  0.4080E+00  0.3061E+00  0.3060E+00
     -0.127  0.5797E+00  0.5790E+00  0.3419E+00  0.3417E+00
     -0.066  0.5747E+00  0.5755E+00  0.3772E+00  0.3771E+00
     -0.004  0.3511E+00  0.3523E+00  0.3989E+00  0.3988E+00
      0.057  0.2179E+00  0.2180E+00  0.4123E+00  0.4122E+00
      0.119  0.3334E+00  0.3320E+00  0.4328E+00  0.4326E+00
      0.181  0.7656E+00  0.7626E+00  0.4799E+00  0.4796E+00
      0.242  0.1302E+01  0.1300E+01  0.5601E+00  0.5597E+00
      0.304  0.1385E+01  0.1386E+01  0.6455E+00  0.6450E+00
      0.365  0.1107E+01  0.1108E+01  0.7136E+00  0.7133E+00
      0.427  0.8849E+00  0.8850E+00  0.7681E+00  0.7677E+00
      0.488  0.9713E+00  0.9697E+00  0.8279E+00  0.8274E+00
      0.550  0.1190E+01  0.1189E+01  0.9011E+00  0.9006E+00
      0.611  0.1204E+01  0.1204E+01  0.9752E+00  0.9747E+00
      0.673  0.1298E+01  0.1293E+01  0.1055E+01  0.1054E+01
      0.735  0.2107E+01  0.2096E+01  0.1185E+01  0.1184E+01
      0.796  0.3290E+01  0.3281E+01  0.1388E+01  0.1385E+01
      0.858  0.3807E+01  0.3805E+01  0.1622E+01  0.1620E+01
      0.919  0.3816E+01  0.3813E+01  0.1857E+01  0.1855E+01
      0.981  0.4159E+01  0.4151E+01  0.2113E+01  0.2110E+01
      1.042  0.4717E+01  0.4709E+01  0.2403E+01  0.2400E+01
      1.104  0.5165E+01  0.5161E+01  0.2721E+01  0.2718E+01
      1.165  0.5269E+01  0.5274E+01  0.3046E+01  0.3043E+01
      1.227  0.4865E+01  0.4871E+01  0.3346E+01  0.3343E+01
      1.289  0.4620E+01  0.4619E+01  0.3630E+01  0.3627E+01
      1.350  0.4795E+01  0.4786E+01  0.3925E+01  0.3922E+01
      1.412  0.5140E+01  0.5136E+01  0.4242E+01  0.4238E+01
      1.473  0.4503E+01  0.4514E+01  0.4519E+01  0.4516E+01
      1.535  0.3660E+01  0.3667E+01  0.4745E+01  0.4742E+01
      1.596  0.3520E+01  0.3518E+01  0.4962E+01  0.4959E+01
      1.658  0.4019E+01  0.4010E+01  0.5210E+01  0.5206E+01
      1.720  0.4655E+01  0.4645E+01  0.5496E+01  0.5492E+01
      1.781  0.4995E+01  0.4990E+01  0.5804E+01  0.5800E+01
      1.843  0.5289E+01  0.5285E+01  0.6130E+01  0.6125E+01
      1.904  0.5472E+01  0.5472E+01  0.6466E+01  0.6462E+01
      1.966  0.5987E+01  0.5978E+01  0.6835E+01  0.6830E+01
      2.027  0.6886E+01  0.6877E+01  0.7259E+01  0.7254E+01
      2.089  0.6993E+01  0.6997E+01  0.7690E+01  0.7685E+01
      2.150  0.6195E+01  0.6205E+01  0.8072E+01  0.8067E+01
      2.212  0.6249E+01  0.6240E+01  0.8456E+01  0.8451E+01
      2.274  0.7813E+01  0.7792E+01  0.8938E+01  0.8931E+01
      2.335  0.9157E+01  0.9146E+01  0.9501E+01  0.9494E+01
      2.397  0.9184E+01  0.9192E+01  0.1007E+02  0.1006E+02
      2.458  0.8395E+01  0.8406E+01  0.1058E+02  0.1058E+02
      2.520  0.7605E+01  0.7614E+01  0.1105E+02  0.1105E+02
      2.581  0.6744E+01  0.6755E+01  0.1147E+02  0.1146E+02
      2.643  0.6047E+01  0.6053E+01  0.1184E+02  0.1184E+02
      2.704  0.5456E+01  0.5464E+01  0.1218E+02  0.1217E+02
      2.766  0.4855E+01  0.4857E+01  0.1248E+02  0.1247E+02
      2.828  0.5281E+01  0.5265E+01  0.1280E+02  0.1280E+02
      2.889  0.5993E+01  0.5983E+01  0.1317E+02  0.1317E+02
      2.951  0.6381E+01  0.6372E+01  0.1356E+02  0.1356E+02
      3.012  0.7096E+01  0.7084E+01  0.1400E+02  0.1399E+02
      3.074  0.7731E+01  0.7725E+01  0.1448E+02  0.1447E+02
      3.135  0.7538E+01  0.7547E+01  0.1494E+02  0.1493E+02
      3.197  0.6287E+01  0.6306E+01  0.1533E+02  0.1532E+02
      3.258  0.4931E+01  0.4947E+01  0.1563E+02  0.1563E+02
      3.320  0.4399E+01  0.4401E+01  0.1590E+02  0.1590E+02
      3.382  0.4918E+01  0.4907E+01  0.1621E+02  0.1620E+02
      3.443  0.5760E+01  0.5749E+01  0.1656E+02  0.1656E+02
      3.505  0.6311E+01  0.6303E+01  0.1695E+02  0.1694E+02
      3.566  0.6478E+01  0.6482E+01  0.1735E+02  0.1734E+02
      3.628  0.5783E+01  0.5798E+01  0.1771E+02  0.1770E+02
      3.689  0.5460E+01  0.5454E+01  0.1804E+02  0.1804E+02
      3.751  0.6853E+01  0.6821E+01  0.1846E+02  0.1846E+02
      3.812  0.8704E+01  0.8687E+01  0.1900E+02  0.1899E+02
      3.874  0.8699E+01  0.8714E+01  0.1954E+02  0.1953E+02
      3.936  0.7158E+01  0.7188E+01  0.1998E+02  0.1997E+02
      3.997  0.5441E+01  0.5464E+01  0.2031E+02  0.2031E+02
      4.059  0.4287E+01  0.4306E+01  0.2058E+02  0.2057E+02
      4.120  0.2799E+01  0.2823E+01  0.2075E+02  0.2075E+02
      4.182  0.1412E+01  0.1426E+01  0.2084E+02  0.2083E+02
      4.243  0.9399E+00  0.9411E+00  0.2089E+02  0.2089E+02
      4.305  0.1052E+01  0.1049E+01  0.2096E+02  0.2096E+02
      4.366  0.1371E+01  0.1366E+01  0.2104E+02  0.2104E+02
      4.428  0.1765E+01  0.1762E+01  0.2115E+02  0.2115E+02
      4.490  0.1611E+01  0.1618E+01  0.2125E+02  0.2125E+02
      4.551  0.9213E+00  0.9300E+00  0.2131E+02  0.2131E+02
      4.613  0.4764E+00  0.4792E+00  0.2134E+02  0.2134E+02
      4.674  0.4636E+00  0.4623E+00  0.2137E+02  0.2137E+02
      4.736  0.5808E+00  0.5806E+00  0.2140E+02  0.2140E+02
      4.797  0.4721E+00  0.4745E+00  0.2143E+02  0.2143E+02
      4.859  0.3317E+00  0.3325E+00  0.2145E+02  0.2145E+02
      4.920  0.4159E+00  0.4147E+00  0.2148E+02  0.2148E+02
      4.982  0.5563E+00  0.5561E+00  0.2151E+02  0.2151E+02
      5.044  0.4352E+00  0.4371E+00  0.2154E+02  0.2154E+02
      5.105  0.2182E+00  0.2195E+00  0.2155E+02  0.2155E+02
      5.167  0.1448E+00  0.1444E+00  0.2156E+02  0.2156E+02
      5.228  0.2670E+00  0.2643E+00  0.2158E+02  0.2158E+02
      5.290  0.6453E+00  0.6399E+00  0.2162E+02  0.2162E+02
      5.351  0.1094E+01  0.1091E+01  0.2168E+02  0.2168E+02
      5.413  0.1073E+01  0.1076E+01  0.2175E+02  0.2175E+02
      5.474  0.8969E+00  0.8970E+00  0.2181E+02  0.2180E+02
      5.536  0.1078E+01  0.1075E+01  0.2187E+02  0.2187E+02
      5.598  0.1105E+01  0.1108E+01  0.2194E+02  0.2194E+02
      5.659  0.6839E+00  0.6889E+00  0.2198E+02  0.2198E+02
      5.721  0.3969E+00  0.3983E+00  0.2201E+02  0.2201E+02
      5.782  0.5109E+00  0.5084E+00  0.2204E+02  0.2204E+02
      5.844  0.9303E+00  0.9266E+00  0.2210E+02  0.2209E+02
      5.905  0.1089E+01  0.1090E+01  0.2216E+02  0.2216E+02
      5.967  0.7406E+00  0.7435E+00  0.2221E+02  0.2221E+02
      6.028  0.5171E+00  0.5166E+00  0.2224E+02  0.2224E+02
      6.090  0.5758E+00  0.5745E+00  0.2228E+02  0.2227E+02
      6.152  0.5271E+00  0.5293E+00  0.2231E+02  0.2231E+02
      6.213  0.2965E+00  0.2993E+00  0.2233E+02  0.2233E+02
      6.275  0.1673E+00  0.1681E+00  0.2234E+02  0.2234E+02
      6.336  0.2442E+00  0.2430E+00  0.2235E+02  0.2235E+02
      6.398  0.5663E+00  0.5630E+00  0.2239E+02  0.2239E+02
      6.459  0.9834E+00  0.9811E+00  0.2245E+02  0.2245E+02
      6.521  0.9606E+00  0.9629E+00  0.2251E+02  0.2251E+02
      6.582  0.5378E+00  0.5411E+00  0.2254E+02  0.2254E+02
      6.644  0.2462E+00  0.2475E+00  0.2255E+02  0.2255E+02
      6.706  0.2263E+00  0.2255E+00  0.2257E+02  0.2257E+02
      6.767  0.5106E+00  0.5072E+00  0.2260E+02  0.2260E+02
      6.829  0.1154E+01  0.1149E+01  0.2267E+02  0.2267E+02
      6.890  0.1634E+01  0.1633E+01  0.2277E+02  0.2277E+02
      6.952  0.1276E+01  0.1281E+01  0.2285E+02  0.2285E+02
      7.013  0.7816E+00  0.7840E+00  0.2290E+02  0.2290E+02
      7.075  0.6691E+00  0.6695E+00  0.2294E+02  0.2294E+02
      7.136  0.5604E+00  0.5618E+00  0.2297E+02  0.2297E+02
      7.198  0.3184E+00  0.3197E+00  0.2299E+02  0.2299E+02
      7.260  0.2085E+00  0.2084E+00  0.2301E+02  0.2301E+02
      7.321  0.3529E+00  0.3511E+00  0.2303E+02  0.2303E+02
      7.383  0.7674E+00  0.7644E+00  0.2308E+02  0.2308E+02
      7.444  0.1081E+01  0.1081E+01  0.2314E+02  0.2314E+02
      7.506  0.7966E+00  0.7996E+00  0.2319E+02  0.2319E+02
      7.567  0.3622E+00  0.3644E+00  0.2321E+02  0.2321E+02
      7.629  0.1740E+00  0.1748E+00  0.2322E+02  0.2322E+02
      7.690  0.2236E+00  0.2236E+00  0.2324E+02  0.2324E+02
      7.752  0.5455E+00  0.5449E+00  0.2327E+02  0.2327E+02
      7.814  0.1126E+01  0.1124E+01  0.2334E+02  0.2334E+02
      7.875  0.1530E+01  0.1528E+01  0.2344E+02  0.2343E+02
      7.937  0.1683E+01  0.1680E+01  0.2354E+02  0.2354E+02
      7.998  0.1683E+01  0.1683E+01  0.2364E+02  0.2364E+02
      8.060  0.1240E+01  0.1243E+01  0.2372E+02  0.2372E+02
      8.121  0.6378E+00  0.6406E+00  0.2376E+02  0.2376E+02
      8.183  0.2739E+00  0.2752E+00  0.2377E+02  0.2377E+02
      8.245  0.2019E+00  0.2020E+00  0.2379E+02  0.2379E+02
      8.306  0.3879E+00  0.3871E+00  0.2381E+02  0.2381E+02
      8.368  0.7726E+00  0.7707E+00  0.2386E+02  0.2386E+02
      8.429  0.1038E+01  0.1037E+01  0.2392E+02  0.2392E+02
      8.491  0.9599E+00  0.9613E+00  0.2398E+02  0.2398E+02
      8.552  0.9145E+00  0.9165E+00  0.2404E+02  0.2404E+02
      8.614  0.1219E+01  0.1219E+01  0.2411E+02  0.2411E+02
      8.675  0.1402E+01  0.1399E+01  0.2420E+02  0.2420E+02
      8.737  0.1374E+01  0.1369E+01  0.2428E+02  0.2428E+02
      8.799  0.1290E+01  0.1290E+01  0.2436E+02  0.2436E+02
      8.860  0.8163E+00  0.8207E+00  0.2441E+02  0.2441E+02
      8.922  0.3363E+00  0.3392E+00  0.2443E+02  0.2443E+02
      8.983  0.1106E+00  0.1117E+00  0.2444E+02  0.2444E+02
      9.045  0.3191E-01  0.3226E-01  0.2444E+02  0.2444E+02
      9.106  0.9679E-02  0.9783E-02  0.2444E+02  0.2444E+02
      9.168  0.9982E-03  0.9884E-03  0.2444E+02  0.2444E+02
      9.229  0.3394E-02  0.3361E-02  0.2444E+02  0.2444E+02
      9.291  0.1134E-01  0.1123E-01  0.2445E+02  0.2445E+02
      9.353  0.3615E-01  0.3583E-01  0.2445E+02  0.2445E+02
      9.414  0.9675E-01  0.9610E-01  0.2445E+02  0.2445E+02
      9.476  0.1740E+00  0.1736E+00  0.2446E+02  0.2446E+02
      9.537  0.1763E+00  0.1767E+00  0.2448E+02  0.2448E+02
      9.599  0.1376E+00  0.1377E+00  0.2448E+02  0.2448E+02
      9.660  0.2071E+00  0.2059E+00  0.2450E+02  0.2450E+02
      9.722  0.5131E+00  0.5098E+00  0.2453E+02  0.2453E+02
      9.783  0.1080E+01  0.1076E+01  0.2459E+02  0.2459E+02
      9.845  0.1494E+01  0.1493E+01  0.2469E+02  0.2469E+02
      9.907  0.1230E+01  0.1234E+01  0.2476E+02  0.2476E+02
      9.968  0.6668E+00  0.6699E+00  0.2480E+02  0.2480E+02
     10.030  0.4560E+00  0.4548E+00  0.2483E+02  0.2483E+02
     10.091  0.7119E+00  0.7068E+00  0.2488E+02  0.2487E+02
     10.153  0.1153E+01  0.1151E+01  0.2495E+02  0.2495E+02
     10.214  0.1219E+01  0.1224E+01  0.2502E+02  0.2502E+02
     10.276  0.1253E+01  0.1258E+01  0.2510E+02  0.2510E+02
     10.337  0.1713E+01  0.1714E+01  0.2520E+02  0.2520E+02
     10.399  0.1963E+01  0.1961E+01  0.2532E+02  0.2532E+02
     10.461  0.1869E+01  0.1867E+01  0.2544E+02  0.2544E+02
     10.522  0.1802E+01  0.1801E+01  0.2555E+02  0.2555E+02
     10.584  0.1402E+01  0.1404E+01  0.2564E+02  0.2564E+02
     10.645  0.7164E+00  0.7200E+00  0.2568E+02  0.2568E+02
     10.707  0.2813E+00  0.2829E+00  0.2570E+02  0.2570E+02
     10.768  0.1547E+00  0.1545E+00  0.2571E+02  0.2571E+02
     10.830  0.2470E+00  0.2451E+00  0.2572E+02  0.2572E+02
     10.891  0.5333E+00  0.5302E+00  0.2576E+02  0.2576E+02
     10.953  0.8558E+00  0.8541E+00  0.2581E+02  0.2581E+02
     11.015  0.1109E+01  0.1108E+01  0.2588E+02  0.2588E+02
     11.076  0.1223E+01  0.1224E+01  0.2595E+02  0.2595E+02
     11.138  0.8457E+00  0.8494E+00  0.2600E+02  0.2600E+02
     11.199  0.3796E+00  0.3819E+00  0.2603E+02  0.2603E+02
     11.261  0.1849E+00  0.1851E+00  0.2604E+02  0.2604E+02
     11.322  0.2251E+00  0.2237E+00  0.2605E+02  0.2605E+02
     11.384  0.4317E+00  0.4295E+00  0.2608E+02  0.2608E+02
     11.445  0.5509E+00  0.5513E+00  0.2611E+02  0.2611E+02
     11.507  0.3965E+00  0.3984E+00  0.2614E+02  0.2614E+02
     11.569  0.2719E+00  0.2723E+00  0.2616E+02  0.2616E+02
     11.630  0.3684E+00  0.3671E+00  0.2618E+02  0.2618E+02
     11.692  0.5401E+00  0.5396E+00  0.2621E+02  0.2621E+02
     11.753  0.4556E+00  0.4572E+00  0.2624E+02  0.2624E+02
     11.815  0.2211E+00  0.2225E+00  0.2625E+02  0.2625E+02
     11.876  0.8975E-01  0.9028E-01  0.2626E+02  0.2626E+02
     11.938  0.7072E-01  0.7055E-01  0.2626E+02  0.2626E+02
     11.999  0.1634E+00  0.1623E+00  0.2627E+02  0.2627E+02
     12.061  0.4723E+00  0.4693E+00  0.2630E+02  0.2630E+02
     12.123  0.1126E+01  0.1121E+01  0.2637E+02  0.2637E+02
     12.184  0.1801E+01  0.1801E+01  0.2648E+02  0.2648E+02
     12.246  0.1873E+01  0.1877E+01  0.2660E+02  0.2660E+02
     12.307  0.1411E+01  0.1411E+01  0.2668E+02  0.2668E+02
     12.369  0.1164E+01  0.1161E+01  0.2676E+02  0.2676E+02
     12.430  0.1263E+01  0.1261E+01  0.2683E+02  0.2683E+02
     12.492  0.1053E+01  0.1054E+01  0.2690E+02  0.2690E+02
     12.553  0.7491E+00  0.7482E+00  0.2694E+02  0.2694E+02
     12.615  0.6771E+00  0.6768E+00  0.2699E+02  0.2699E+02
     12.677  0.5050E+00  0.5086E+00  0.2702E+02  0.2702E+02
     12.738  0.2778E+00  0.2803E+00  0.2703E+02  0.2703E+02
     12.800  0.2459E+00  0.2452E+00  0.2705E+02  0.2705E+02
     12.861  0.4950E+00  0.4907E+00  0.2708E+02  0.2708E+02
     12.923  0.9473E+00  0.9430E+00  0.2714E+02  0.2714E+02
     12.984  0.1037E+01  0.1040E+01  0.2720E+02  0.2720E+02
     13.046  0.6145E+00  0.6200E+00  0.2724E+02  0.2724E+02
     13.107  0.2885E+00  0.2920E+00  0.2726E+02  0.2726E+02
     13.169  0.2702E+00  0.2735E+00  0.2727E+02  0.2728E+02
     13.231  0.5950E+00  0.6011E+00  0.2731E+02  0.2731E+02
     13.292  0.1247E+01  0.1254E+01  0.2739E+02  0.2739E+02
     13.354  0.1581E+01  0.1579E+01  0.2749E+02  0.2749E+02
     13.415  0.1086E+01  0.1079E+01  0.2755E+02  0.2755E+02
     13.477  0.4965E+00  0.4925E+00  0.2758E+02  0.2758E+02
     13.538  0.2859E+00  0.2842E+00  0.2760E+02  0.2760E+02
     13.600  0.3937E+00  0.3923E+00  0.2762E+02  0.2762E+02
     13.661  0.6118E+00  0.6085E+00  0.2766E+02  0.2766E+02
     13.723  0.6686E+00  0.6595E+00  0.2770E+02  0.2770E+02
     13.785  0.7971E+00  0.7790E+00  0.2775E+02  0.2775E+02
     13.846  0.1097E+01  0.1087E+01  0.2782E+02  0.2782E+02
     13.908  0.9704E+00  0.9851E+00  0.2788E+02  0.2788E+02
     13.969  0.4882E+00  0.5050E+00  0.2791E+02  0.2791E+02
     14.031  0.1747E+00  0.1822E+00  0.2792E+02  0.2792E+02
     14.092  0.5451E-01  0.5704E-01  0.2792E+02  0.2792E+02
     14.154  0.1863E-01  0.1938E-01  0.2793E+02  0.2793E+02
     14.215  0.1353E-01  0.1371E-01  0.2793E+02  0.2793E+02
     14.277  0.2837E-01  0.2823E-01  0.2793E+02  0.2793E+02
     14.339  0.7940E-01  0.7908E-01  0.2793E+02  0.2793E+02
     14.400  0.1572E+00  0.1569E+00  0.2794E+02  0.2794E+02
     14.462  0.1711E+00  0.1713E+00  0.2795E+02  0.2795E+02
     14.523  0.9852E-01  0.9888E-01  0.2796E+02  0.2796E+02
     14.585  0.3748E-01  0.3767E-01  0.2796E+02  0.2796E+02
     14.646  0.1193E-01  0.1200E-01  0.2796E+02  0.2796E+02
     14.708  0.3576E-02  0.3596E-02  0.2796E+02  0.2796E+02
     14.769  0.1052E-02  0.1058E-02  0.2796E+02  0.2796E+02
     14.831  0.6953E-04  0.1178E-03  0.2796E+02  0.2796E+02
     14.893  0.1685E-03  0.2856E-03  0.2796E+02  0.2796E+02
     14.954  0.5766E-03  0.9760E-03  0.2796E+02  0.2796E+02
     15.016  0.1967E-02  0.3319E-02  0.2796E+02  0.2796E+02
     15.077  0.6639E-02  0.1110E-01  0.2796E+02  0.2796E+02
     15.139  0.2166E-01  0.3506E-01  0.2796E+02  0.2797E+02
     15.200  0.6353E-01  0.9370E-01  0.2797E+02  0.2797E+02
     15.262  0.1400E+00  0.1683E+00  0.2798E+02  0.2798E+02
     15.324  0.1784E+00  0.1611E+00  0.2799E+02  0.2799E+02
     15.385  0.1179E+00  0.8385E-01  0.2800E+02  0.2800E+02
     15.447  0.4825E-01  0.3038E-01  0.2800E+02  0.2800E+02
     15.508  0.1579E-01  0.9504E-02  0.2800E+02  0.2800E+02
     15.570  0.4773E-02  0.2833E-02  0.2800E+02  0.2800E+02
     15.631  0.1408E-02  0.8322E-03  0.2800E+02  0.2800E+02
     15.693  0.0000E+00  0.0000E+00  0.2800E+02  0.2800E+02
     15.754  0.0000E+00  0.0000E+00  0.2800E+02  0.2800E+02
     15.816  0.0000E+00  0.0000E+00  0.2800E+02  0.2800E+02
     15.878  0.0000E+00  0.0000E+00  0.2800E+02  0.2800E+02
     15.939  0.0000E+00  0.0000E+00  0.2800E+02  0.2800E+02
     16.001  0.0000E+00  0.0000E+00  0.2800E+02  0.2800E+02
     16.062  0.0000E+00  0.0000E+00  0.2800E+02  0.2800E+02
     16.124  0.0000E+00  0.0000E+00  0.2800E+02  0.2800E+02
     16.12374203     -2.34322884  301      5.70363095      1.00000000
     -2.343  0.0000E+00  0.0000E+00  0.0000E+00  0.0000E+00  0.0000E+00  0.0000E+00  0.0000E+00  0.0000E+00  0.0000E+00  0.0000E+00  0.0000E+00  0.0000E+00  0.0000E+00  0.0000E+00  0.0000E+00  0.0000E+00  0.0000E+00  0.0000E+00
     -2.282  0.0000E+00  0.0000E+00  0.0000E+00  0.0000E+00  0.0000E+00  0.0000E+00  0.0000E+00  0.0000E+00  0.0000E+00  0.0000E+00  0.0000E+00  0.0000E+00  0.0000E+00  0.0000E+00  0.0000E+00  0.0000E+00  0.0000E+00  0.0000E+00
     -2.220  0.0000E+00  0.0000E+00  0.0000E+00  0.0000E+00  0.0000E+00  0.0000E+00  0.0000E+00  0.0000E+00  0.0000E+00  0.0000E+00  0.0000E+00  0.0000E+00  0.0000E+00  0.0000E+00  0.0000E+00  0.0000E+00  0.0000E+00  0.0000E+00
     -2.159  0.0000E+00  0.0000E+00  0.0000E+00  0.0000E+00  0.0000E+00  0.0000E+00  0.0000E+00  0.0000E+00  0.0000E+00  0.0000E+00  0.0000E+00  0.0000E+00  0.0000E+00  0.0000E+00  0.0000E+00  0.0000E+00  0.0000E+00  0.0000E+00
     -2.097  0.0000E+00  0.0000E+00  0.0000E+00  0.0000E+00  0.0000E+00  0.0000E+00  0.0000E+00  0.0000E+00  0.0000E+00  0.0000E+00  0.0000E+00  0.0000E+00  0.0000E+00  0.0000E+00  0.0000E+00  0.0000E+00  0.0000E+00  0.0000E+00
     -2.035  0.0000E+00  0.0000E+00  0.0000E+00  0.0000E+00  0.0000E+00  0.0000E+00  0.0000E+00  0.0000E+00  0.0000E+00  0.0000E+00  0.0000E+00  0.0000E+00  0.0000E+00  0.0000E+00  0.0000E+00  0.0000E+00  0.0000E+00  0.0000E+00
     -1.974  0.0000E+00  0.0000E+00  0.0000E+00  0.0000E+00  0.0000E+00  0.0000E+00  0.0000E+00  0.0000E+00  0.0000E+00  0.0000E+00  0.0000E+00  0.0000E+00  0.0000E+00  0.0000E+00  0.0000E+00  0.0000E+00  0.0000E+00  0.0000E+00
     -1.912  0.2072E-04  0.2061E-04  0.8252E-07  0.8208E-07  0.8252E-07  0.8208E-07  0.8252E-07  0.8208E-07  0.9014E-08  0.8966E-08  0.9014E-08  0.8966E-08  0.8660E-20  0.3549E-20  0.9014E-08  0.8966E-08  0.8660E-20  0.3549E-20
     -1.851  0.5019E-04  0.4993E-04  0.1999E-06  0.1988E-06  0.1999E-06  0.1988E-06  0.1999E-06  0.1988E-06  0.2184E-07  0.2172E-07  0.2184E-07  0.2172E-07  0.2098E-19  0.8598E-20  0.2184E-07  0.2172E-07  0.2098E-19  0.8598E-20
     -1.789  0.1714E-03  0.1705E-03  0.6827E-06  0.6790E-06  0.6827E-06  0.6790E-06  0.6827E-06  0.6790E-06  0.7457E-07  0.7418E-07  0.7457E-07  0.7418E-07  0.7164E-19  0.2936E-19  0.7457E-07  0.7418E-07  0.7164E-19  0.2936E-19
     -1.728  0.5810E-03  0.5780E-03  0.2314E-05  0.2302E-05  0.2314E-05  0.2302E-05  0.2314E-05  0.2302E-05  0.2528E-06  0.2515E-06  0.2528E-06  0.2515E-06  0.2429E-18  0.9954E-19  0.2528E-06  0.2515E-06  0.2429E-18  0.9954E-19
     -1.666  0.1922E-02  0.1912E-02  0.7655E-05  0.7616E-05  0.7655E-05  0.7616E-05  0.7655E-05  0.7616E-05  0.8361E-06  0.8319E-06  0.8361E-06  0.8319E-06  0.8033E-18  0.3293E-18  0.8361E-06  0.8319E-06  0.8033E-18  0.3293E-18
     -1.605  0.5874E-02  0.5848E-02  0.2340E-04  0.2329E-04  0.2340E-04  0.2329E-04  0.2340E-04  0.2329E-04  0.2556E-05  0.2544E-05  0.2556E-05  0.2544E-05  0.2455E-17  0.1007E-17  0.2556E-05  0.2544E-05  0.2455E-17  0.1007E-17
     -1.543  0.1435E-01  0.1430E-01  0.5715E-04  0.5697E-04  0.5715E-04  0.5697E-04  0.5715E-04  0.5697E-04  0.6242E-05  0.6224E-05  0.6242E-05  0.6224E-05  0.5997E-17  0.2463E-17  0.6242E-05  0.6224E-05  0.5997E-17  0.2463E-17
     -1.481  0.2172E-01  0.2171E-01  0.8650E-04  0.8647E-04  0.8650E-04  0.8647E-04  0.8650E-04  0.8647E-04  0.9448E-05  0.9446E-05  0.9448E-05  0.9446E-05  0.9077E-17  0.3739E-17  0.9448E-05  0.9446E-05  0.9077E-17  0.3739E-17
     -1.420  0.1710E-01  0.1714E-01  0.6872E-04  0.6888E-04  0.6872E-04  0.6888E-04  0.6872E-04  0.6888E-04  0.7603E-05  0.7621E-05  0.7603E-05  0.7621E-05  0.1624E-06  0.1614E-06  0.7603E-05  0.7621E-05  0.1624E-06  0.1614E-06
     -1.358  0.7873E-02  0.7907E-02  0.3284E-04  0.3296E-04  0.3284E-04  0.3296E-04  0.3284E-04  0.3296E-04  0.3822E-05  0.3835E-05  0.3822E-05  0.3835E-05  0.3934E-06  0.3910E-06  0.3822E-05  0.3835E-05  0.3934E-06  0.3910E-06
     -1.297  0.3115E-02  0.3126E-02  0.1745E-04  0.1746E-04  0.1745E-04  0.1746E-04  0.1745E-04  0.1746E-04  0.2711E-05  0.2709E-05  0.2711E-05  0.2709E-05  0.1343E-05  0.1335E-05  0.2711E-05  0.2709E-05  0.1343E-05  0.1335E-05
     -1.235  0.2428E-02  0.2424E-02  0.2676E-04  0.2665E-04  0.2676E-04  0.2665E-04  0.2676E-04  0.2665E-04  0.5654E-05  0.5628E-05  0.5654E-05  0.5628E-05  0.4556E-05  0.4529E-05  0.5654E-05  0.5628E-05  0.4556E-05  0.4529E-05
     -1.174  0.5604E-02  0.5577E-02  0.7891E-04  0.7850E-04  0.7891E-04  0.7850E-04  0.7891E-04  0.7850E-04  0.1766E-04  0.1757E-04  0.1766E-04  0.1757E-04  0.1509E-04  0.1500E-04  0.1766E-04  0.1757E-04  0.1509E-04  0.1500E-04
     -1.112  0.1652E-01  0.1645E-01  0.2394E-03  0.2383E-03  0.2394E-03  0.2383E-03  0.2394E-03  0.2383E-03  0.5389E-04  0.5365E-04  0.5389E-04  0.5365E-04  0.4627E-04  0.4603E-04  0.5389E-04  0.5365E-04  0.4627E-04  0.4603E-04
     -1.051  0.4056E-01  0.4044E-01  0.5895E-03  0.5875E-03  0.5895E-03  0.5875E-03  0.5895E-03  0.5875E-03  0.1328E-03  0.1324E-03  0.1328E-03  0.1324E-03  0.1141E-03  0.1136E-03  0.1328E-03  0.1324E-03  0.1141E-03  0.1136E-03
     -0.989  0.6245E-01  0.6243E-01  0.9080E-03  0.9075E-03  0.9080E-03  0.9075E-03  0.9080E-03  0.9075E-03  0.2052E-03  0.2051E-03  0.2052E-03  0.2051E-03  0.1756E-03  0.1754E-03  0.2052E-03  0.2051E-03  0.1756E-03  0.1754E-03
     -0.927  0.4996E-01  0.5008E-01  0.7269E-03  0.7286E-03  0.7269E-03  0.7286E-03  0.7269E-03  0.7286E-03  0.1653E-03  0.1658E-03  0.1653E-03  0.1658E-03  0.1404E-03  0.1407E-03  0.1653E-03  0.1658E-03  0.1404E-03  0.1407E-03
     -0.866  0.2322E-01  0.2333E-01  0.3405E-03  0.3419E-03  0.3405E-03  0.3419E-03  0.3405E-03  0.3419E-03  0.8221E-04  0.8251E-04  0.8221E-04  0.8251E-04  0.6509E-04  0.6534E-04  0.8221E-04  0.8251E-04  0.6509E-04  0.6534E-04
     -0.804  0.8986E-02  0.9021E-02  0.1408E-03  0.1412E-03  0.1408E-03  0.1412E-03  0.1408E-03  0.1412E-03  0.5043E-04  0.5043E-04  0.5043E-04  0.5043E-04  0.2450E-04  0.2459E-04  0.5043E-04  0.5043E-04  0.2450E-04  0.2459E-04
     -0.743  0.6223E-02  0.6217E-02  0.1244E-03  0.1241E-03  0.1244E-03  0.1241E-03  0.1244E-03  0.1241E-03  0.9055E-04  0.9017E-04  0.9055E-04  0.9017E-04  0.1494E-04  0.1492E-04  0.9055E-04  0.9017E-04  0.1494E-04  0.1492E-04
     -0.681  0.1275E-01  0.1269E-01  0.2923E-03  0.2909E-03  0.2923E-03  0.2909E-03  0.2923E-03  0.2909E-03  0.2635E-03  0.2623E-03  0.2635E-03  0.2623E-03  0.2775E-04  0.2762E-04  0.2635E-03  0.2623E-03  0.2775E-04  0.2762E-04
     -0.620  0.3212E-01  0.3201E-01  0.7507E-03  0.7479E-03  0.7507E-03  0.7479E-03  0.7507E-03  0.7479E-03  0.6932E-03  0.6908E-03  0.6932E-03  0.6908E-03  0.6887E-04  0.6857E-04  0.6932E-03  0.6908E-03  0.6887E-04  0.6857E-04
     -0.558  0.5649E-01  0.5643E-01  0.1324E-02  0.1322E-02  0.1324E-02  0.1322E-02  0.1324E-02  0.1322E-02  0.1228E-02  0.1226E-02  0.1228E-02  0.1226E-02  0.1221E-03  0.1218E-03  0.1228E-02  0.1226E-02  0.1221E-03  0.1218E-03
     -0.497  0.5323E-01  0.5333E-01  0.1248E-02  0.1250E-02  0.1248E-02  0.1250E-02  0.1248E-02  0.1250E-02  0.1166E-02  0.1168E-02  0.1166E-02  0.1168E-02  0.1166E-03  0.1167E-03  0.1166E-02  0.1168E-02  0.1166E-03  0.1167E-03
     -0.435  0.2809E-01  0.2820E-01  0.6630E-03  0.6653E-03  0.6630E-03  0.6653E-03  0.6630E-03  0.6653E-03  0.6526E-03  0.6547E-03  0.6526E-03  0.6547E-03  0.6923E-04  0.6934E-04  0.6526E-03  0.6547E-03  0.6923E-04  0.6934E-04
     -0.373  0.1278E-01  0.1282E-01  0.3159E-03  0.3166E-03  0.3159E-03  0.3166E-03  0.3159E-03  0.3166E-03  0.4201E-03  0.4202E-03  0.4201E-03  0.4202E-03  0.5856E-04  0.5839E-04  0.4201E-03  0.4202E-03  0.5856E-04  0.5839E-04
     -0.312  0.1214E-01  0.1212E-01  0.3368E-03  0.3358E-03  0.3368E-03  0.3358E-03  0.3368E-03  0.3358E-03  0.6777E-03  0.6753E-03  0.6777E-03  0.6753E-03  0.1330E-03  0.1322E-03  0.6777E-03  0.6753E-03  0.1330E-03  0.1322E-03
     -0.250  0.2340E-01  0.2333E-01  0.6949E-03  0.6923E-03  0.6949E-03  0.6923E-03  0.6949E-03  0.6923E-03  0.1383E-02  0.1380E-02  0.1383E-02  0.1380E-02  0.4098E-03  0.4072E-03  0.1383E-02  0.1380E-02  0.4098E-03  0.4072E-03
     -0.189  0.4161E-01  0.4151E-01  0.1319E-02  0.1315E-02  0.1319E-02  0.1315E-02  0.1319E-02  0.1315E-02  0.1874E-02  0.1873E-02  0.1874E-02  0.1873E-02  0.1157E-02  0.1151E-02  0.1874E-02  0.1873E-02  0.1157E-02  0.1151E-02
     -0.127  0.5941E-01  0.5934E-01  0.2012E-02  0.2009E-02  0.2012E-02  0.2009E-02  0.2012E-02  0.2009E-02  0.1615E-02  0.1616E-02  0.1615E-02  0.1616E-02  0.2345E-02  0.2338E-02  0.1615E-02  0.1616E-02  0.2345E-02  0.2338E-02
     -0.066  0.5907E-01  0.5916E-01  0.2064E-02  0.2067E-02  0.2064E-02  0.2067E-02  0.2064E-02  0.2067E-02  0.1125E-02  0.1127E-02  0.1125E-02  0.1127E-02  0.2654E-02  0.2656E-02  0.1125E-02  0.1127E-02  0.2654E-02  0.2656E-02
     -0.004  0.3588E-01  0.3601E-01  0.1277E-02  0.1281E-02  0.1277E-02  0.1281E-02  0.1277E-02  0.1281E-02  0.7688E-03  0.7695E-03  0.7688E-03  0.7695E-03  0.1636E-02  0.1641E-02  0.7688E-03  0.7695E-03  0.1636E-02  0.1641E-02
      0.057  0.2145E-01  0.2147E-01  0.8031E-03  0.8035E-03  0.8031E-03  0.8035E-03  0.8031E-03  0.8035E-03  0.1050E-02  0.1046E-02  0.1050E-02  0.1046E-02  0.8627E-03  0.8641E-03  0.1050E-02  0.1046E-02  0.8627E-03  0.8641E-03
      0.119  0.3117E-01  0.3106E-01  0.1243E-02  0.1238E-02  0.1243E-02  0.1238E-02  0.1243E-02  0.1238E-02  0.2779E-02  0.2765E-02  0.2779E-02  0.2765E-02  0.1002E-02  0.9986E-03  0.2779E-02  0.2765E-02  0.1002E-02  0.9986E-03
      0.181  0.7037E-01  0.7012E-01  0.2837E-02  0.2826E-02  0.2837E-02  0.2826E-02  0.2837E-02  0.2826E-02  0.7271E-02  0.7239E-02  0.7271E-02  0.7239E-02  0.2104E-02  0.2095E-02  0.7271E-02  0.7239E-02  0.2104E-02  0.2095E-02
      0.242  0.1175E+00  0.1173E+00  0.4674E-02  0.4668E-02  0.4674E-02  0.4668E-02  0.4674E-02  0.4668E-02  0.1412E-01  0.1408E-01  0.1412E-01  0.1408E-01  0.3360E-02  0.3354E-02  0.1412E-01  0.1408E-01  0.3360E-02  0.3354E-02
      0.304  0.1188E+00  0.1189E+00  0.4530E-02  0.4536E-02  0.4530E-02  0.4536E-02  0.4530E-02  0.4536E-02  0.1974E-01  0.1971E-01  0.1974E-01  0.1971E-01  0.3068E-02  0.3071E-02  0.1974E-01  0.1971E-01  0.3068E-02  0.3071E-02
      0.365  0.8570E-01  0.8588E-01  0.2985E-02  0.2993E-02  0.2985E-02  0.2993E-02  0.2985E-02  0.2993E-02  0.2273E-01  0.2271E-01  0.2273E-01  0.2271E-01  0.1851E-02  0.1855E-02  0.2273E-01  0.2271E-01  0.1851E-02  0.1855E-02
      0.427  0.5672E-01  0.5680E-01  0.1659E-02  0.1664E-02  0.1659E-02  0.1664E-02  0.1659E-02  0.1664E-02  0.2665E-01  0.2660E-01  0.2665E-01  0.2660E-01  0.9975E-03  0.9976E-03  0.2665E-01  0.2660E-01  0.9975E-03  0.9976E-03
      0.488  0.5057E-01  0.5053E-01  0.1198E-02  0.1198E-02  0.1198E-02  0.1198E-02  0.1198E-02  0.1198E-02  0.3720E-01  0.3711E-01  0.3720E-01  0.3711E-01  0.1004E-02  0.9948E-03  0.3720E-01  0.3711E-01  0.1004E-02  0.9948E-03
      0.550  0.5544E-01  0.5541E-01  0.1230E-02  0.1229E-02  0.1230E-02  0.1229E-02  0.1230E-02  0.1229E-02  0.4890E-01  0.4885E-01  0.4890E-01  0.4885E-01  0.2450E-02  0.2416E-02  0.4890E-01  0.4885E-01  0.2450E-02  0.2416E-02
      0.611  0.5317E-01  0.5316E-01  0.1357E-02  0.1354E-02  0.1357E-02  0.1354E-02  0.1357E-02  0.1354E-02  0.4735E-01  0.4739E-01  0.4735E-01  0.4739E-01  0.7535E-02  0.7426E-02  0.4735E-01  0.4739E-01  0.7535E-02  0.7426E-02
      0.673  0.5848E-01  0.5830E-01  0.2215E-02  0.2202E-02  0.2215E-02  0.2202E-02  0.2215E-02  0.2202E-02  0.3908E-01  0.3908E-01  0.3908E-01  0.3908E-01  0.2213E-01  0.2184E-01  0.3908E-01  0.3908E-01  0.2213E-01  0.2184E-01
      0.735  0.9412E-01  0.9376E-01  0.4299E-02  0.4281E-02  0.4299E-02  0.4281E-02  0.4299E-02  0.4281E-02  0.5099E-01  0.5080E-01  0.5099E-01  0.5080E-01  0.5246E-01  0.5195E-01  0.5099E-01  0.5080E-01  0.5246E-01  0.5195E-01