   4   4   1   0
  0.1968441E+02  0.4286085E-09  0.4286085E-09  0.4286085E-09  0.5000000E-15
  1.000000000000000E-004
  CAR 
 unknown system                          
     18.42433298     -1.88465185  301      7.22509909      1.00000000
     -1.885  0.0000E+00  0.0000E+00  0.0000E+00  0.0000E+00
     -1.817  0.0000E+00  0.0000E+00  0.0000E+00  0.0000E+00
     -1.749  0.0000E+00  0.0000E+00  0.0000E+00  0.0000E+00
     -1.682  0.0000E+00  0.0000E+00  0.0000E+00  0.0000E+00
     -1.614  0.0000E+00  0.0000E+00  0.0000E+00  0.0000E+00
     -1.546  0.0000E+00  0.0000E+00  0.0000E+00  0.0000E+00
     -1.478  0.0000E+00  0.0000E+00  0.0000E+00  0.0000E+00
     -1.411  0.6852E-04  0.6773E-04  0.4638E-05  0.4585E-05
     -1.343  0.1967E-03  0.1945E-03  0.1796E-04  0.1775E-04
     -1.275  0.7605E-03  0.7518E-03  0.6944E-04  0.6865E-04
     -1.208  0.2925E-02  0.2892E-02  0.2675E-03  0.2644E-03
     -1.140  0.1104E-01  0.1092E-01  0.1015E-02  0.1003E-02
     -1.072  0.3883E-01  0.3844E-01  0.3643E-02  0.3605E-02
     -1.005  0.1087E+00  0.1079E+00  0.1100E-01  0.1091E-01
     -0.937  0.1771E+00  0.1769E+00  0.2299E-01  0.2289E-01
     -0.869  0.1332E+00  0.1339E+00  0.3200E-01  0.3195E-01
     -0.802  0.5371E-01  0.5421E-01  0.3564E-01  0.3562E-01
     -0.734  0.1789E-01  0.1804E-01  0.3685E-01  0.3684E-01
     -0.666  0.1253E-01  0.1248E-01  0.3770E-01  0.3769E-01
     -0.598  0.3252E-01  0.3218E-01  0.3990E-01  0.3987E-01
     -0.531  0.1110E+00  0.1099E+00  0.4744E-01  0.4733E-01
     -0.463  0.3153E+00  0.3130E+00  0.6879E-01  0.6852E-01
     -0.395  0.5286E+00  0.5278E+00  0.1046E+00  0.1043E+00
     -0.328  0.4098E+00  0.4121E+00  0.1323E+00  0.1322E+00
     -0.260  0.1684E+00  0.1699E+00  0.1437E+00  0.1437E+00
     -0.192  0.5584E-01  0.5632E-01  0.1475E+00  0.1475E+00
     -0.125  0.3673E-01  0.3663E-01  0.1500E+00  0.1499E+00
     -0.057  0.8807E-01  0.8723E-01  0.1559E+00  0.1559E+00
      0.011  0.2580E+00  0.2559E+00  0.1735E+00  0.1733E+00
      0.079  0.5018E+00  0.5004E+00  0.2075E+00  0.2071E+00
      0.146  0.4651E+00  0.4669E+00  0.2389E+00  0.2387E+00
      0.214  0.2180E+00  0.2198E+00  0.2537E+00  0.2536E+00
      0.282  0.8892E-01  0.8939E-01  0.2597E+00  0.2597E+00
      0.349  0.9589E-01  0.9535E-01  0.2662E+00  0.2661E+00
      0.417  0.2118E+00  0.2104E+00  0.2805E+00  0.2804E+00
      0.485  0.3810E+00  0.3793E+00  0.3065E+00  0.3062E+00
      0.552  0.5577E+00  0.5563E+00  0.3442E+00  0.3438E+00
      0.620  0.5438E+00  0.5455E+00  0.3810E+00  0.3808E+00
      0.688  0.2917E+00  0.2939E+00  0.4008E+00  0.4007E+00
      0.756  0.1598E+00  0.1600E+00  0.4116E+00  0.4115E+00
      0.823  0.2740E+00  0.2718E+00  0.4301E+00  0.4299E+00
      0.891  0.7248E+00  0.7195E+00  0.4792E+00  0.4786E+00
      0.959  0.1298E+01  0.1295E+01  0.5671E+00  0.5663E+00
      1.026  0.1333E+01  0.1335E+01  0.6574E+00  0.6567E+00
      1.094  0.9986E+00  0.1002E+01  0.7250E+00  0.7245E+00
      1.162  0.7819E+00  0.7825E+00  0.7779E+00  0.7775E+00
      1.229  0.9177E+00  0.9157E+00  0.8400E+00  0.8395E+00
      1.297  0.1135E+01  0.1134E+01  0.9168E+00  0.9163E+00
      1.365  0.1040E+01  0.1040E+01  0.9874E+00  0.9868E+00
      1.432  0.1129E+01  0.1122E+01  0.1064E+01  0.1063E+01
      1.500  0.2045E+01  0.2031E+01  0.1202E+01  0.1200E+01
      1.568  0.3143E+01  0.3137E+01  0.1415E+01  0.1413E+01
      1.636  0.3444E+01  0.3444E+01  0.1648E+01  0.1646E+01
      1.703  0.3319E+01  0.3317E+01  0.1873E+01  0.1871E+01
      1.771  0.3692E+01  0.3683E+01  0.2123E+01  0.2120E+01
      1.839  0.4116E+01  0.4113E+01  0.2402E+01  0.2398E+01
      1.906  0.4359E+01  0.4357E+01  0.2697E+01  0.2694E+01
      1.974  0.4539E+01  0.4544E+01  0.3004E+01  0.3001E+01
      2.042  0.4131E+01  0.4137E+01  0.3284E+01  0.3282E+01
      2.109  0.3847E+01  0.3849E+01  0.3545E+01  0.3542E+01
      2.177  0.3819E+01  0.3813E+01  0.3804E+01  0.3801E+01
      2.245  0.4561E+01  0.4548E+01  0.4113E+01  0.4109E+01
      2.313  0.4488E+01  0.4497E+01  0.4417E+01  0.4413E+01
      2.380  0.3334E+01  0.3345E+01  0.4643E+01  0.4640E+01
      2.448  0.2765E+01  0.2769E+01  0.4830E+01  0.4828E+01
      2.516  0.2825E+01  0.2822E+01  0.5021E+01  0.5019E+01
      2.583  0.3484E+01  0.3474E+01  0.5257E+01  0.5254E+01
      2.651  0.4087E+01  0.4082E+01  0.5534E+01  0.5531E+01
      2.719  0.4225E+01  0.4224E+01  0.5821E+01  0.5817E+01
      2.786  0.4286E+01  0.4288E+01  0.6111E+01  0.6107E+01
      2.854  0.4191E+01  0.4197E+01  0.6395E+01  0.6391E+01
      2.922  0.4354E+01  0.4347E+01  0.6690E+01  0.6686E+01
      2.990  0.5569E+01  0.5553E+01  0.7067E+01  0.7062E+01
      3.057  0.6378E+01  0.6377E+01  0.7499E+01  0.7494E+01
      3.125  0.5492E+01  0.5511E+01  0.7871E+01  0.7867E+01
      3.193  0.4222E+01  0.4229E+01  0.8157E+01  0.8153E+01
      3.260  0.4985E+01  0.4967E+01  0.8494E+01  0.8490E+01
      3.328  0.7050E+01  0.7031E+01  0.8972E+01  0.8966E+01
      3.396  0.7824E+01  0.7824E+01  0.9502E+01  0.9496E+01
      3.463  0.7044E+01  0.7055E+01  0.9979E+01  0.9974E+01
      3.531  0.6624E+01  0.6625E+01  0.1043E+02  0.1042E+02
      3.599  0.6928E+01  0.6926E+01  0.1090E+02  0.1089E+02
      3.666  0.6365E+01  0.6378E+01  0.1133E+02  0.1132E+02
      3.734  0.5045E+01  0.5057E+01  0.1167E+02  0.1167E+02
      3.802  0.4477E+01  0.4478E+01  0.1197E+02  0.1197E+02
      3.870  0.4354E+01  0.4355E+01  0.1227E+02  0.1226E+02
      3.937  0.4451E+01  0.4443E+01  0.1257E+02  0.1257E+02
      4.005  0.4953E+01  0.4945E+01  0.1291E+02  0.1290E+02
      4.073  0.4843E+01  0.4847E+01  0.1323E+02  0.1323E+02
      4.140  0.4309E+01  0.4313E+01  0.1353E+02  0.1352E+02
      4.208  0.4764E+01  0.4749E+01  0.1385E+02  0.1384E+02
      4.276  0.6122E+01  0.6108E+01  0.1426E+02  0.1426E+02
      4.343  0.6533E+01  0.6535E+01  0.1471E+02  0.1470E+02
      4.411  0.5792E+01  0.5803E+01  0.1510E+02  0.1509E+02
      4.479  0.4637E+01  0.4652E+01  0.1541E+02  0.1541E+02
      4.547  0.3625E+01  0.3634E+01  0.1566E+02  0.1565E+02
      4.614  0.3456E+01  0.3455E+01  0.1589E+02  0.1589E+02
      4.682  0.3879E+01  0.3870E+01  0.1615E+02  0.1615E+02
      4.750  0.4636E+01  0.4627E+01  0.1647E+02  0.1646E+02
      4.817  0.5088E+01  0.5083E+01  0.1681E+02  0.1681E+02
      4.885  0.5553E+01  0.5547E+01  0.1719E+02  0.1718E+02
      4.953  0.5281E+01  0.5297E+01  0.1755E+02  0.1754E+02
      5.020  0.3910E+01  0.3927E+01  0.1781E+02  0.1781E+02
      5.088  0.3611E+01  0.3601E+01  0.1806E+02  0.1805E+02
      5.156  0.5299E+01  0.5267E+01  0.1842E+02  0.1841E+02
      5.223  0.7389E+01  0.7372E+01  0.1892E+02  0.1891E+02
      5.291  0.7417E+01  0.7427E+01  0.1942E+02  0.1941E+02
      5.359  0.6293E+01  0.6313E+01  0.1985E+02  0.1984E+02
      5.427  0.4781E+01  0.4801E+01  0.2017E+02  0.2016E+02
      5.494  0.3970E+01  0.3977E+01  0.2044E+02  0.2043E+02
      5.562  0.3543E+01  0.3554E+01  0.2068E+02  0.2068E+02
      5.630  0.2311E+01  0.2327E+01  0.2083E+02  0.2083E+02
      5.697  0.1338E+01  0.1345E+01  0.2093E+02  0.2092E+02
      5.765  0.9821E+00  0.9843E+00  0.2099E+02  0.2099E+02
      5.833  0.1062E+01  0.1058E+01  0.2106E+02  0.2106E+02
      5.900  0.1552E+01  0.1547E+01  0.2117E+02  0.2117E+02
      5.968  0.1455E+01  0.1463E+01  0.2127E+02  0.2127E+02
      6.036  0.7884E+00  0.7959E+00  0.2132E+02  0.2132E+02
      6.104  0.5113E+00  0.5133E+00  0.2136E+02  0.2136E+02
      6.171  0.6092E+00  0.6082E+00  0.2140E+02  0.2140E+02
      6.239  0.5743E+00  0.5761E+00  0.2144E+02  0.2144E+02
      6.307  0.5217E+00  0.5216E+00  0.2147E+02  0.2147E+02
      6.374  0.5899E+00  0.5902E+00  0.2151E+02  0.2151E+02
      6.442  0.4144E+00  0.4173E+00  0.2154E+02  0.2154E+02
      6.510  0.1643E+00  0.1662E+00  0.2155E+02  0.2155E+02
      6.577  0.4983E-01  0.5040E-01  0.2155E+02  0.2155E+02
      6.645  0.2407E-01  0.2406E-01  0.2156E+02  0.2156E+02
      6.713  0.4611E-01  0.4546E-01  0.2156E+02  0.2156E+02
      6.781  0.1568E+00  0.1545E+00  0.2157E+02  0.2157E+02
      6.848  0.4996E+00  0.4934E+00  0.2160E+02  0.2160E+02
      6.916  0.1101E+01  0.1094E+01  0.2168E+02  0.2168E+02
      6.984  0.1415E+01  0.1414E+01  0.2177E+02  0.2177E+02
      7.051  0.1421E+01  0.1422E+01  0.2187E+02  0.2187E+02
      7.119  0.1153E+01  0.1159E+01  0.2195E+02  0.2195E+02
      7.187  0.5789E+00  0.5851E+00  0.2199E+02  0.2199E+02
      7.254  0.3213E+00  0.3217E+00  0.2201E+02  0.2201E+02
      7.322  0.5419E+00  0.5357E+00  0.2205E+02  0.2205E+02
      7.390  0.1223E+01  0.1213E+01  0.2213E+02  0.2213E+02
      7.457  0.1573E+01  0.1576E+01  0.2224E+02  0.2223E+02
      7.525  0.9611E+00  0.9709E+00  0.2230E+02  0.2230E+02
      7.593  0.3447E+00  0.3497E+00  0.2232E+02  0.2232E+02
      7.661  0.9871E-01  0.1003E+00  0.2233E+02  0.2233E+02
      7.728  0.2739E-01  0.2779E-01  0.2233E+02  0.2233E+02
      7.796  0.1193E-01  0.1197E-01  0.2233E+02  0.2233E+02
      7.864  0.1981E-01  0.1954E-01  0.2234E+02  0.2234E+02
      7.931  0.7446E-01  0.7347E-01  0.2234E+02  0.2234E+02
      7.999  0.2586E+00  0.2555E+00  0.2236E+02  0.2236E+02
      8.067  0.6976E+00  0.6920E+00  0.2240E+02  0.2240E+02
      8.134  0.1069E+01  0.1068E+01  0.2248E+02  0.2248E+02
      8.202  0.7682E+00  0.7734E+00  0.2253E+02  0.2253E+02
      8.270  0.3483E+00  0.3510E+00  0.2255E+02  0.2255E+02
      8.338  0.2884E+00  0.2868E+00  0.2257E+02  0.2257E+02
      8.405  0.6442E+00  0.6379E+00  0.2262E+02  0.2262E+02
      8.473  0.1344E+01  0.1338E+01  0.2271E+02  0.2271E+02
      8.541  0.1824E+01  0.1823E+01  0.2283E+02  0.2283E+02
      8.608  0.1494E+01  0.1501E+01  0.2293E+02  0.2293E+02
      8.676  0.7008E+00  0.7073E+00  0.2298E+02  0.2298E+02
      8.744  0.2256E+00  0.2282E+00  0.2299E+02  0.2299E+02
      8.811  0.6413E-01  0.6487E-01  0.2300E+02  0.2300E+02
      8.879  0.2432E-01  0.2438E-01  0.2300E+02  0.2300E+02
      8.947  0.3743E-01  0.3699E-01  0.2300E+02  0.2300E+02
      9.015  0.1253E+00  0.1236E+00  0.2301E+02  0.2301E+02
      9.082  0.4056E+00  0.4010E+00  0.2304E+02  0.2304E+02
      9.150  0.9077E+00  0.9027E+00  0.2310E+02  0.2310E+02
      9.218  0.1018E+01  0.1021E+01  0.2317E+02  0.2317E+02
      9.285  0.5427E+00  0.5480E+00  0.2321E+02  0.2321E+02
      9.353  0.2010E+00  0.2031E+00  0.2322E+02  0.2322E+02
      9.421  0.1360E+00  0.1360E+00  0.2323E+02  0.2323E+02
      9.488  0.3278E+00  0.3254E+00  0.2325E+02  0.2325E+02
      9.556  0.9781E+00  0.9717E+00  0.2332E+02  0.2332E+02
      9.624  0.1966E+01  0.1961E+01  0.2345E+02  0.2345E+02
      9.691  0.1913E+01  0.1918E+01  0.2358E+02  0.2358E+02
      9.759  0.9376E+00  0.9435E+00  0.2364E+02  0.2364E+02
      9.827  0.4114E+00  0.4128E+00  0.2367E+02  0.2367E+02
      9.895  0.4226E+00  0.4213E+00  0.2370E+02  0.2370E+02
      9.962  0.5620E+00  0.5619E+00  0.2374E+02  0.2374E+02
     10.030  0.4117E+00  0.4134E+00  0.2377E+02  0.2377E+02
     10.098  0.2571E+00  0.2574E+00  0.2378E+02  0.2378E+02
     10.165  0.4039E+00  0.4015E+00  0.2381E+02  0.2381E+02
     10.233  0.8814E+00  0.8776E+00  0.2387E+02  0.2387E+02
     10.301  0.1141E+01  0.1141E+01  0.2395E+02  0.2395E+02
     10.368  0.9260E+00  0.9264E+00  0.2401E+02  0.2401E+02
     10.436  0.1158E+01  0.1153E+01  0.2409E+02  0.2409E+02
     10.504  0.1859E+01  0.1857E+01  0.2421E+02  0.2421E+02
     10.572  0.1866E+01  0.1871E+01  0.2434E+02  0.2434E+02
     10.639  0.1027E+01  0.1032E+01  0.2441E+02  0.2441E+02
     10.707  0.3580E+00  0.3603E+00  0.2444E+02  0.2444E+02
     10.775  0.1015E+00  0.1022E+00  0.2444E+02  0.2444E+02
     10.842  0.2688E-01  0.2706E-01  0.2444E+02  0.2444E+02
     10.910  0.5357E-02  0.5382E-02  0.2444E+02  0.2444E+02
     10.978  0.1263E-03  0.1245E-03  0.2444E+02  0.2444E+02
     11.045  0.7769E-03  0.7666E-03  0.2444E+02  0.2444E+02
     11.113  0.2589E-02  0.2554E-02  0.2444E+02  0.2444E+02
     11.181  0.9942E-02  0.9809E-02  0.2445E+02  0.2445E+02
     11.248  0.3731E-01  0.3683E-01  0.2445E+02  0.2445E+02
     11.316  0.1299E+00  0.1284E+00  0.2446E+02  0.2446E+02
     11.384  0.3579E+00  0.3550E+00  0.2448E+02  0.2448E+02
     11.452  0.6389E+00  0.6372E+00  0.2452E+02  0.2452E+02
     11.519  0.6307E+00  0.6325E+00  0.2457E+02  0.2457E+02
     11.587  0.4157E+00  0.4167E+00  0.2459E+02  0.2459E+02
     11.655  0.4938E+00  0.4903E+00  0.2463E+02  0.2463E+02
     11.722  0.9463E+00  0.9410E+00  0.2469E+02  0.2469E+02
     11.790  0.1139E+01  0.1140E+01  0.2477E+02  0.2477E+02
     11.858  0.9095E+00  0.9097E+00  0.2483E+02  0.2483E+02
     11.925  0.1036E+01  0.1032E+01  0.2490E+02  0.2490E+02
     11.993  0.1129E+01  0.1132E+01  0.2498E+02  0.2498E+02
     12.061  0.7247E+00  0.7312E+00  0.2503E+02  0.2503E+02
     12.129  0.5732E+00  0.5740E+00  0.2507E+02  0.2507E+02
     12.196  0.1035E+01  0.1031E+01  0.2514E+02  0.2514E+02
     12.264  0.1900E+01  0.1896E+01  0.2526E+02  0.2526E+02
     12.332  0.2391E+01  0.2392E+01  0.2543E+02  0.2543E+02
     12.399  0.1621E+01  0.1628E+01  0.2554E+02  0.2554E+02
     12.467  0.6876E+00  0.6918E+00  0.2558E+02  0.2558E+02
     12.535  0.4093E+00  0.4097E+00  0.2561E+02  0.2561E+02
     12.602  0.5353E+00  0.5347E+00  0.2565E+02  0.2565E+02
     12.670  0.5404E+00  0.5407E+00  0.2568E+02  0.2568E+02
     12.738  0.3798E+00  0.3789E+00  0.2571E+02  0.2571E+02
     12.806  0.4989E+00  0.4946E+00  0.2574E+02  0.2574E+02
     12.873  0.9216E+00  0.9166E+00  0.2581E+02  0.2580E+02
     12.941  0.1295E+01  0.1293E+01  0.2589E+02  0.2589E+02
     13.009  0.1209E+01  0.1214E+01  0.2598E+02  0.2597E+02
     13.076  0.6282E+00  0.6341E+00  0.2602E+02  0.2602E+02
     13.144  0.2139E+00  0.2164E+00  0.2603E+02  0.2603E+02
     13.212  0.7545E-01  0.7594E-01  0.2604E+02  0.2604E+02
     13.279  0.7741E-01  0.7658E-01  0.2604E+02  0.2604E+02
     13.347  0.2080E+00  0.2053E+00  0.2606E+02  0.2606E+02
     13.415  0.4602E+00  0.4572E+00  0.2609E+02  0.2609E+02
     13.482  0.5336E+00  0.5351E+00  0.2612E+02  0.2612E+02
     13.550  0.3600E+00  0.3619E+00  0.2615E+02  0.2615E+02
     13.618  0.3625E+00  0.3611E+00  0.2617E+02  0.2617E+02
     13.686  0.5355E+00  0.5344E+00  0.2621E+02  0.2621E+02
     13.753  0.4567E+00  0.4593E+00  0.2624E+02  0.2624E+02
     13.821  0.2034E+00  0.2057E+00  0.2625E+02  0.2625E+02
     13.889  0.7156E-01  0.7229E-01  0.2626E+02  0.2626E+02
     13.956  0.5711E-01  0.5681E-01  0.2626E+02  0.2626E+02
     14.024  0.1550E+00  0.1531E+00  0.2627E+02  0.2627E+02
     14.092  0.5102E+00  0.5046E+00  0.2631E+02  0.2631E+02
     14.159  0.1313E+01  0.1305E+01  0.2640E+02  0.2640E+02
     14.227  0.2047E+01  0.2046E+01  0.2654E+02  0.2653E+02
     14.295  0.1893E+01  0.1897E+01  0.2666E+02  0.2666E+02
     14.363  0.1505E+01  0.1505E+01  0.2677E+02  0.2676E+02
     14.430  0.1304E+01  0.1306E+01  0.2685E+02  0.2685E+02
     14.498  0.7704E+00  0.7751E+00  0.2691E+02  0.2691E+02
     14.566  0.3983E+00  0.3982E+00  0.2693E+02  0.2693E+02
     14.633  0.4428E+00  0.4386E+00  0.2696E+02  0.2696E+02
     14.701  0.5588E+00  0.5590E+00  0.2700E+02  0.2700E+02
     14.769  0.3814E+00  0.3861E+00  0.2703E+02  0.2703E+02
     14.836  0.2111E+00  0.2126E+00  0.2704E+02  0.2704E+02
     14.904  0.3092E+00  0.3058E+00  0.2706E+02  0.2706E+02
     14.972  0.7347E+00  0.7274E+00  0.2711E+02  0.2711E+02
     15.040  0.1095E+01  0.1095E+01  0.2719E+02  0.2718E+02
     15.107  0.8150E+00  0.8201E+00  0.2724E+02  0.2724E+02
     15.175  0.5636E+00  0.5609E+00  0.2728E+02  0.2728E+02
     15.243  0.8352E+00  0.8246E+00  0.2734E+02  0.2733E+02
     15.310  0.1140E+01  0.1140E+01  0.2741E+02  0.2741E+02
     15.378  0.8781E+00  0.8875E+00  0.2747E+02  0.2747E+02
     15.446  0.6697E+00  0.6728E+00  0.2752E+02  0.2752E+02
     15.513  0.6115E+00  0.6146E+00  0.2756E+02  0.2756E+02
     15.581  0.3617E+00  0.3657E+00  0.2758E+02  0.2758E+02
     15.649  0.1970E+00  0.1973E+00  0.2760E+02  0.2760E+02
     15.716  0.2809E+00  0.2765E+00  0.2762E+02  0.2762E+02
     15.784  0.5537E+00  0.5454E+00  0.2765E+02  0.2765E+02
     15.852  0.7114E+00  0.6965E+00  0.2770E+02  0.2770E+02
     15.920  0.8702E+00  0.8373E+00  0.2776E+02  0.2776E+02
     15.987  0.1134E+01  0.1123E+01  0.2784E+02  0.2783E+02
     16.055  0.8385E+00  0.8742E+00  0.2789E+02  0.2789E+02
     16.123  0.3440E+00  0.3702E+00  0.2792E+02  0.2792E+02
     16.190  0.1243E+00  0.1332E+00  0.2793E+02  0.2793E+02
     16.258  0.1063E+00  0.1081E+00  0.2793E+02  0.2793E+02
     16.326  0.1696E+00  0.1697E+00  0.2794E+02  0.2794E+02
     16.393  0.1598E+00  0.1604E+00  0.2796E+02  0.2796E+02
     16.461  0.7640E-01  0.7709E-01  0.2796E+02  0.2796E+02
     16.529  0.2427E-01  0.2454E-01  0.2796E+02  0.2796E+02
     16.597  0.6644E-02  0.6723E-02  0.2796E+02  0.2796E+02
     16.664  0.1742E-02  0.1764E-02  0.2796E+02  0.2796E+02
     16.732  0.0000E+00  0.0000E+00  0.2796E+02  0.2796E+02
     16.800  0.0000E+00  0.0000E+00  0.2796E+02  0.2796E+02
     16.867  0.0000E+00  0.0000E+00  0.2796E+02  0.2796E+02
     16.935  0.0000E+00  0.0000E+00  0.2796E+02  0.2796E+02
     17.003  0.0000E+00  0.0000E+00  0.2796E+02  0.2796E+02
     17.070  0.1221E-03  0.9911E-04  0.2796E+02  0.2796E+02
     17.138  0.3504E-03  0.2845E-03  0.2796E+02  0.2796E+02
     17.206  0.1353E-02  0.1099E-02  0.2796E+02  0.2796E+02
     17.273  0.5177E-02  0.4215E-02  0.2796E+02  0.2796E+02
     17.341  0.1915E-01  0.1573E-01  0.2796E+02  0.2796E+02
     17.409  0.6290E-01  0.5315E-01  0.2797E+02  0.2797E+02
     17.477  0.1459E+00  0.1330E+00  0.2798E+02  0.2798E+02
     17.544  0.1724E+00  0.1771E+00  0.2799E+02  0.2799E+02
     17.612  0.9520E-01  0.1087E+00  0.2800E+02  0.2800E+02
     17.680  0.3228E-01  0.3883E-01  0.2800E+02  0.2800E+02
     17.747  0.9019E-02  0.1104E-01  0.2800E+02  0.2800E+02
     17.815  0.2379E-02  0.2925E-02  0.2800E+02  0.2800E+02
     17.883  0.6176E-03  0.7605E-03  0.2800E+02  0.2800E+02
     17.950  0.0000E+00  0.0000E+00  0.2800E+02  0.2800E+02
     18.018  0.0000E+00  0.0000E+00  0.2800E+02  0.2800E+02
     18.086  0.0000E+00  0.0000E+00  0.2800E+02  0.2800E+02
     18.154  0.0000E+00  0.0000E+00  0.2800E+02  0.2800E+02
     18.221  0.0000E+00  0.0000E+00  0.2800E+02  0.2800E+02
     18.289  0.0000E+00  0.0000E+00  0.2800E+02  0.2800E+02
     18.357  0.0000E+00  0.0000E+00  0.2800E+02  0.2800E+02
     18.424  0.0000E+00  0.0000E+00  0.2800E+02  0.2800E+02
     18.42433298     -1.88465185  301      7.22509909      1.00000000
     -1.885  0.0000E+00  0.0000E+00  0.0000E+00  0.0000E+00  0.0000E+00  0.0000E+00  0.0000E+00  0.0000E+00  0.0000E+00  0.0000E+00  0.0000E+00  0.0000E+00  0.0000E+00  0.0000E+00  0.0000E+00  0.0000E+00  0.0000E+00  0.0000E+00
     -1.817  0.0000E+00  0.0000E+00  0.0000E+00  0.0000E+00  0.0000E+00  0.0000E+00  0.0000E+00  0.0000E+00  0.0000E+00  0.0000E+00  0.0000E+00  0.0000E+00  0.0000E+00  0.0000E+00  0.0000E+00  0.0000E+00  0.0000E+00  0.0000E+00
     -1.749  0.0000E+00  0.0000E+00  0.0000E+00  0.0000E+00  0.0000E+00  0.0000E+00  0.0000E+00  0.0000E+00  0.0000E+00  0.0000E+00  0.0000E+00  0.0000E+00  0.0000E+00  0.0000E+00  0.0000E+00  0.0000E+00  0.0000E+00  0.0000E+00
     -1.682  0.0000E+00  0.0000E+00  0.0000E+00  0.0000E+00  0.0000E+00  0.0000E+00  0.0000E+00  0.0000E+00  0.0000E+00  0.0000E+00  0.0000E+00  0.0000E+00  0.0000E+00  0.0000E+00  0.0000E+00  0.0000E+00  0.0000E+00  0.0000E+00
     -1.614  0.0000E+00  0.0000E+00  0.0000E+00  0.0000E+00  0.0000E+00  0.0000E+00  0.0000E+00  0.0000E+00  0.0000E+00  0.0000E+00  0.0000E+00  0.0000E+00  0.0000E+00  0.0000E+00  0.0000E+00  0.0000E+00  0.0000E+00  0.0000E+00
     -1.546  0.0000E+00  0.0000E+00  0.0000E+00  0.0000E+00  0.0000E+00  0.0000E+00  0.0000E+00  0.0000E+00  0.0000E+00  0.0000E+00  0.0000E+00  0.0000E+00  0.0000E+00  0.0000E+00  0.0000E+00  0.0000E+00  0.0000E+00  0.0000E+00
     -1.478  0.0000E+00  0.0000E+00  0.0000E+00  0.0000E+00  0.0000E+00  0.0000E+00  0.0000E+00  0.0000E+00  0.0000E+00  0.0000E+00  0.0000E+00  0.0000E+00  0.0000E+00  0.0000E+00  0.0000E+00  0.0000E+00  0.0000E+00  0.0000E+00
     -1.411  0.9055E-05  0.8952E-05  0.4106E-07  0.4059E-07  0.4106E-07  0.4059E-07  0.4106E-07  0.4059E-07  0.3893E-08  0.3849E-08  0.3893E-08  0.3849E-08  0.1057E-20  0.7479E-21  0.3893E-08  0.3849E-08  0.1057E-20  0.7479E-21
     -1.343  0.2600E-04  0.2570E-04  0.1179E-06  0.1166E-06  0.1179E-06  0.1166E-06  0.1179E-06  0.1166E-06  0.1118E-07  0.1105E-07  0.1118E-07  0.1105E-07  0.3036E-20  0.2147E-20  0.1118E-07  0.1105E-07  0.3036E-20  0.2147E-20
     -1.275  0.1005E-03  0.9937E-04  0.4557E-06  0.4506E-06  0.4557E-06  0.4506E-06  0.4557E-06  0.4506E-06  0.4321E-07  0.4272E-07  0.4321E-07  0.4272E-07  0.1174E-19  0.8302E-20  0.4321E-07  0.4272E-07  0.1174E-19  0.8302E-20
     -1.208  0.3866E-03  0.3822E-03  0.1753E-05  0.1733E-05  0.1753E-05  0.1733E-05  0.1753E-05  0.1733E-05  0.1662E-06  0.1643E-06  0.1662E-06  0.1643E-06  0.4514E-19  0.3193E-19  0.1662E-06  0.1643E-06  0.4514E-19  0.3193E-19
     -1.140  0.1459E-02  0.1443E-02  0.6615E-05  0.6543E-05  0.6615E-05  0.6543E-05  0.6615E-05  0.6543E-05  0.6272E-06  0.6203E-06  0.6272E-06  0.6203E-06  0.1703E-18  0.1205E-18  0.6272E-06  0.6203E-06  0.1703E-18  0.1205E-18
     -1.072  0.5131E-02  0.5080E-02  0.2327E-04  0.2304E-04  0.2327E-04  0.2304E-04  0.2327E-04  0.2304E-04  0.2206E-05  0.2184E-05  0.2206E-05  0.2184E-05  0.5991E-18  0.4244E-18  0.2206E-05  0.2184E-05  0.5991E-18  0.4244E-18
     -1.005  0.1436E-01  0.1426E-01  0.6512E-04  0.6468E-04  0.6512E-04  0.6468E-04  0.6512E-04  0.6468E-04  0.6175E-05  0.6132E-05  0.6175E-05  0.6132E-05  0.1677E-17  0.1192E-17  0.6175E-05  0.6132E-05  0.1677E-17  0.1192E-17
     -0.937  0.2340E-01  0.2338E-01  0.1061E-03  0.1060E-03  0.1061E-03  0.1060E-03  0.1061E-03  0.1060E-03  0.1006E-04  0.1005E-04  0.1006E-04  0.1005E-04  0.2732E-17  0.1953E-17  0.1006E-04  0.1005E-04  0.2732E-17  0.1953E-17
     -0.869  0.1760E-01  0.1770E-01  0.8009E-04  0.8054E-04  0.8009E-04  0.8054E-04  0.8009E-04  0.8054E-04  0.7633E-05  0.7675E-05  0.7633E-05  0.7675E-05  0.6798E-07  0.6716E-07  0.7633E-05  0.7675E-05  0.6798E-07  0.6716E-07
     -0.802  0.7095E-02  0.7162E-02  0.3302E-04  0.3332E-04  0.3302E-04  0.3332E-04  0.3302E-04  0.3332E-04  0.3245E-05  0.3271E-05  0.3245E-05  0.3271E-05  0.1952E-06  0.1928E-06  0.3245E-05  0.3271E-05  0.1952E-06  0.1928E-06
     -0.734  0.2351E-02  0.2371E-02  0.1395E-04  0.1401E-04  0.1395E-04  0.1401E-04  0.1395E-04  0.1401E-04  0.1763E-05  0.1763E-05  0.1763E-05  0.1763E-05  0.7546E-06  0.7455E-06  0.1763E-05  0.1763E-05  0.7546E-06  0.7455E-06
     -0.666  0.1607E-02  0.1602E-02  0.1996E-04  0.1979E-04  0.1996E-04  0.1979E-04  0.1996E-04  0.1979E-04  0.3586E-05  0.3551E-05  0.3586E-05  0.3551E-05  0.2904E-05  0.2869E-05  0.3586E-05  0.3551E-05  0.2904E-05  0.2869E-05
     -0.598  0.4113E-02  0.4071E-02  0.6652E-04  0.6580E-04  0.6652E-04  0.6580E-04  0.6652E-04  0.6580E-04  0.1271E-04  0.1257E-04  0.1271E-04  0.1257E-04  0.1097E-04  0.1084E-04  0.1271E-04  0.1257E-04  0.1097E-04  0.1084E-04
     -0.531  0.1402E-01  0.1388E-01  0.2328E-03  0.2304E-03  0.2328E-03  0.2304E-03  0.2328E-03  0.2304E-03  0.4470E-04  0.4425E-04  0.4470E-04  0.4425E-04  0.3878E-04  0.3836E-04  0.4470E-04  0.4425E-04  0.3878E-04  0.3836E-04
     -0.463  0.3982E-01  0.3954E-01  0.6611E-03  0.6564E-03  0.6611E-03  0.6564E-03  0.6611E-03  0.6564E-03  0.1269E-03  0.1260E-03  0.1269E-03  0.1260E-03  0.1101E-03  0.1093E-03  0.1269E-03  0.1260E-03  0.1101E-03  0.1093E-03
     -0.395  0.6676E-01  0.6667E-01  0.1108E-02  0.1107E-02  0.1108E-02  0.1107E-02  0.1108E-02  0.1107E-02  0.2131E-03  0.2125E-03  0.2131E-03  0.2125E-03  0.1846E-03  0.1842E-03  0.2131E-03  0.2125E-03  0.1846E-03  0.1842E-03
     -0.328  0.5175E-01  0.5205E-01  0.8595E-03  0.8647E-03  0.8595E-03  0.8647E-03  0.8595E-03  0.8647E-03  0.1658E-03  0.1671E-03  0.1658E-03  0.1671E-03  0.1431E-03  0.1438E-03  0.1658E-03  0.1671E-03  0.1431E-03  0.1438E-03
     -0.260  0.2125E-01  0.2145E-01  0.3547E-03  0.3580E-03  0.3547E-03  0.3580E-03  0.3547E-03  0.3580E-03  0.7109E-04  0.7169E-04  0.7109E-04  0.7169E-04  0.5863E-04  0.5915E-04  0.7109E-04  0.7169E-04  0.5863E-04  0.5915E-04
     -0.192  0.7008E-02  0.7070E-02  0.1238E-03  0.1248E-03  0.1238E-03  0.1248E-03  0.1238E-03  0.1248E-03  0.3525E-04  0.3531E-04  0.3525E-04  0.3531E-04  0.1886E-04  0.1903E-04  0.3525E-04  0.3531E-04  0.1886E-04  0.1903E-04
     -0.125  0.4472E-02  0.4460E-02  0.1027E-03  0.1022E-03  0.1027E-03  0.1022E-03  0.1027E-03  0.1022E-03  0.6338E-04  0.6280E-04  0.6338E-04  0.6280E-04  0.1041E-04  0.1039E-04  0.6338E-04  0.6280E-04  0.1041E-04  0.1039E-04
     -0.057  0.1052E-01  0.1042E-01  0.2777E-03  0.2749E-03  0.2777E-03  0.2749E-03  0.2777E-03  0.2749E-03  0.2112E-03  0.2090E-03  0.2112E-03  0.2090E-03  0.2200E-04  0.2178E-04  0.2112E-03  0.2090E-03  0.2200E-04  0.2178E-04
      0.011  0.3073E-01  0.3049E-01  0.8246E-03  0.8180E-03  0.8246E-03  0.8180E-03  0.8246E-03  0.8180E-03  0.6406E-03  0.6355E-03  0.6406E-03  0.6355E-03  0.6337E-04  0.6282E-04  0.6406E-03  0.6355E-03  0.6337E-04  0.6282E-04
      0.079  0.5977E-01  0.5961E-01  0.1604E-02  0.1599E-02  0.1604E-02  0.1599E-02  0.1604E-02  0.1599E-02  0.1247E-02  0.1243E-02  0.1247E-02  0.1243E-02  0.1232E-03  0.1228E-03  0.1247E-02  0.1243E-02  0.1232E-03  0.1228E-03
      0.146  0.5538E-01  0.5560E-01  0.1487E-02  0.1493E-02  0.1487E-02  0.1493E-02  0.1487E-02  0.1493E-02  0.1161E-02  0.1166E-02  0.1161E-02  0.1166E-02  0.1160E-03  0.1164E-03  0.1161E-02  0.1166E-02  0.1160E-03  0.1164E-03
      0.214  0.2590E-01  0.2612E-01  0.6987E-03  0.7044E-03  0.6987E-03  0.7044E-03  0.6987E-03  0.7044E-03  0.5720E-03  0.5762E-03  0.5720E-03  0.5762E-03  0.5824E-04  0.5858E-04  0.5720E-03  0.5762E-03  0.5824E-04  0.5858E-04
      0.282  0.1033E-01  0.1039E-01  0.2913E-03  0.2927E-03  0.2913E-03  0.2927E-03  0.2913E-03  0.2927E-03  0.3362E-03  0.3362E-03  0.3362E-03  0.3362E-03  0.4002E-04  0.3988E-04  0.3362E-03  0.3362E-03  0.4002E-04  0.3988E-04
      0.349  0.1054E-01  0.1048E-01  0.3331E-03  0.3311E-03  0.3331E-03  0.3311E-03  0.3331E-03  0.3311E-03  0.6175E-03  0.6130E-03  0.6175E-03  0.6130E-03  0.9529E-04  0.9419E-04  0.6175E-03  0.6130E-03  0.9529E-04  0.9419E-04
      0.417  0.2293E-01  0.2278E-01  0.7703E-03  0.7649E-03  0.7703E-03  0.7649E-03  0.7703E-03  0.7649E-03  0.1394E-02  0.1387E-02  0.1394E-02  0.1387E-02  0.3355E-03  0.3315E-03  0.1394E-02  0.1387E-02  0.3355E-03  0.3315E-03
      0.485  0.4145E-01  0.4127E-01  0.1502E-02  0.1494E-02  0.1502E-02  0.1494E-02  0.1502E-02  0.1494E-02  0.1841E-02  0.1841E-02  0.1841E-02  0.1841E-02  0.1079E-02  0.1068E-02  0.1841E-02  0.1841E-02  0.1079E-02  0.1068E-02
      0.552  0.6119E-01  0.6103E-01  0.2396E-02  0.2389E-02  0.2396E-02  0.2389E-02  0.2396E-02  0.2389E-02  0.1465E-02  0.1469E-02  0.1465E-02  0.1469E-02  0.2391E-02  0.2379E-02  0.1465E-02  0.1469E-02  0.2391E-02  0.2379E-02
      0.620  0.5983E-01  0.6002E-01  0.2416E-02  0.2423E-02  0.2416E-02  0.2423E-02  0.2416E-02  0.2423E-02  0.9689E-03  0.9733E-03  0.9689E-03  0.9733E-03  0.2647E-02  0.2653E-02  0.9689E-03  0.9733E-03  0.2647E-02  0.2653E-02
      0.688  0.3195E-01  0.3219E-01  0.1309E-02  0.1319E-02  0.1309E-02  0.1319E-02  0.1309E-02  0.1319E-02  0.5738E-03  0.5757E-03  0.5738E-03  0.5757E-03  0.1427E-02  0.1437E-02  0.5738E-03  0.5757E-03  0.1427E-02  0.1437E-02
      0.756  0.1683E-01  0.1686E-01  0.7286E-03  0.7295E-03  0.7286E-03  0.7295E-03  0.7286E-03  0.7295E-03  0.7551E-03  0.7497E-03  0.7551E-03  0.7497E-03  0.6518E-03  0.6545E-03  0.7551E-03  0.7497E-03  0.6518E-03  0.6545E-03
      0.823  0.2737E-01  0.2715E-01  0.1268E-02  0.1257E-02  0.1268E-02  0.1257E-02  0.1268E-02  0.1257E-02  0.2291E-02  0.2269E-02  0.2291E-02  0.2269E-02  0.8250E-03  0.8190E-03  0.2291E-02  0.2269E-02  0.8250E-03  0.8190E-03
      0.891  0.7135E-01  0.7084E-01  0.3331E-02  0.3308E-02  0.3331E-02  0.3308E-02  0.3331E-02  0.3308E-02  0.6775E-02  0.6723E-02  0.6775E-02  0.6723E-02  0.2018E-02  0.2003E-02  0.6775E-02  0.6723E-02  0.2018E-02  0.2003E-02
      0.959  0.1254E+00  0.1252E+00  0.5768E-02  0.5758E-02  0.5768E-02  0.5758E-02  0.5768E-02  0.5758E-02  0.1393E-01  0.1388E-01  0.1393E-01  0.1388E-01  0.3395E-02  0.3387E-02  0.1393E-01  0.1388E-01  0.3395E-02  0.3387E-02
      1.026  0.1218E+00  0.1221E+00  0.5326E-02  0.5343E-02  0.5326E-02  0.5343E-02  0.5326E-02  0.5343E-02  0.1946E-01  0.1944E-01  0.1946E-01  0.1944E-01  0.2921E-02  0.2931E-02  0.1946E-01  0.1944E-01  0.2921E-02  0.2931E-02
      1.094  0.8150E-01  0.8185E-01  0.3197E-02  0.3215E-02  0.3197E-02  0.3215E-02  0.3197E-02  0.3215E-02  0.2165E-01  0.2165E-01  0.2165E-01  0.2165E-01  0.1571E-02  0.1580E-02  0.2165E-01  0.2165E-01  0.1571E-02  0.1580E-02
      1.162  0.5178E-01  0.5191E-01  0.1640E-02  0.1648E-02  0.1640E-02  0.1648E-02  0.1640E-02  0.1648E-02  0.2524E-01  0.2519E-01  0.2524E-01  0.2519E-01  0.7456E-03  0.7475E-03  0.2524E-01  0.2519E-01  0.7456E-03  0.7475E-03
      1.229  0.5017E-01  0.5011E-01  0.1299E-02  0.1298E-02  0.1299E-02  0.1298E-02  0.1299E-02  0.1298E-02  0.3639E-01  0.3629E-01  0.3639E-01  0.3629E-01  0.8472E-03  0.8370E-03  0.3639E-01  0.3629E-01  0.8472E-03  0.8370E-03
      1.297  0.5628E-01  0.5626E-01  0.1377E-02  0.1377E-02  0.1377E-02  0.1377E-02  0.1377E-02  0.1377E-02  0.4749E-01  0.4746E-01  0.4749E-01  0.4746E-01  0.2407E-02  0.2365E-02  0.4749E-01  0.4746E-01  0.2407E-02  0.2365E-02
      1.365  0.4880E-01  0.4880E-01  0.1416E-02  0.1411E-02  0.1416E-02  0.1411E-02  0.1416E-02  0.1411E-02  0.4033E-01  0.4043E-01  0.4033E-01  0.4043E-01  0.8376E-02  0.8228E-02  0.4033E-01  0.4043E-01  0.8376E-02  0.8228E-02
      1.432  0.5417E-01  0.5387E-01  0.2527E-02  0.2506E-02  0.2527E-02  0.2506E-02  0.2527E-02  0.2506E-02  0.2882E-01  0.2882E-01  0.2882E-01  0.2882E-01  0.2680E-01  0.2640E-01  0.2882E-01  0.2882E-01  0.2680E-01  0.2640E-01
      1.500  0.9683E-01  0.9632E-01  0.5266E-02  0.5238E-02  0.5266E-02  0.5238E-02  0.5266E-02  0.5238E-02  0.4198E-01  0.4175E-01  0.4198E-01  0.4175E-01  0.6226E-01  0.6170E-01  0.4198E-01  0.4175E-01  0.6226E-01  0.6170E-01