 vasp.6.1.0 28Jan20 (build Jun 11 2020 16:13:15) complex                        
  
 executed on             LinuxIFC date 2022.01.24  17:06:30
 running on   64 total cores
 distrk:  each k-point on   64 cores,    1 groups
 distr:  one band on NCORE=   1 cores,   64 groups


--------------------------------------------------------------------------------------------------------


 INCAR:
 POTCAR:    PAW_PBE Au 04Oct2007                  
 -----------------------------------------------------------------------------
|                                                                             |
|           W    W    AA    RRRRR   N    N  II  N    N   GGGG   !!!           |
|           W    W   A  A   R    R  NN   N  II  NN   N  G    G  !!!           |
|           W    W  A    A  R    R  N N  N  II  N N  N  G       !!!           |
|           W WW W  AAAAAA  RRRRR   N  N N  II  N  N N  G  GGG   !            |
|           WW  WW  A    A  R   R   N   NN  II  N   NN  G    G                |
|           W    W  A    A  R    R  N    N  II  N    N   GGGG   !!!           |
|                                                                             |
|     For optimal performance we recommend to set                             |
|       NCORE = 4 - approx SQRT(number of cores).                             |
|     NCORE specifies how many cores store one orbital (NPAR=cpu/NCORE).      |
|     This setting can greatly improve the performance of VASP for DFT.       |
|     The default, NCORE=1 might be grossly inefficient on modern             |
|     multi-core architectures or massively parallel machines. Do your        |
|     own testing!!!!                                                         |
|     Unfortunately you need to use the default for GW and RPA                |
|     calculations (for HF NCORE is supported but not extensively tested      |
|     yet).                                                                   |
|                                                                             |
 -----------------------------------------------------------------------------

 POTCAR:    PAW_PBE Au 04Oct2007                  
   SHA256 =  d0044ae04e2bdce24051b198fc5c053d722a5bc6fe3c3b100514a13fc5d2db88 Au/POTCAR             
   COPYR  = (c) Copyright 04Oct2007 Georg Kresse                                                    
   COPYR  = This file is part of the software VASP. Any use, copying, and all other rights are regul
   COPYR  = If you do not have a valid VASP license, you may not use, copy or distribute this file. 
   VRHFIN =Au: s1d10                                                                                
   LEXCH  = PE                                                                                      
   EATOM  =   926.0867 eV,   68.0654 Ry                                                             
                                                                                                    
   TITEL  = PAW_PBE Au 04Oct2007                                                                    
   LULTRA =        F    use ultrasoft PP ?                                                          
   IUNSCR =        1    unscreen: 0-lin 1-nonlin 2-no                                               
   RPACOR =    2.330    partial core radius                                                         
   POMASS =  196.966; ZVAL   =   11.000    mass and valenz                                          
   RCORE  =    2.500    outmost cutoff radius                                                       
   RWIGS  =    2.840; RWIGS  =    1.503    wigner-seitz radius (au A)                               
   ENMAX  =  229.943; ENMIN  =  172.457 eV                                                          
   ICORE  =        3    local potential                                                             
   LCOR   =        T    correct aug charges                                                         
   LPAW   =        T    paw PP                                                                      
   EAUG   =  356.670                                                                                
   DEXC   =    0.000                                                                                
   RMAX   =    2.562    core radius for proj-oper                                                   
   RAUG   =    1.300    factor for augmentation sphere                                              
   RDEP   =    2.598    radius for radial grids                                                     
   RDEPT  =    2.193    core radius for aug-charge                                                  
                                                                                                    
   Atomic configuration                                                                             
   16 entries                                                                                       
     n  l   j            E        occ.                                                              
     1  0  0.50    -80748.5001   2.0000                                                             
     2  0  0.50    -14244.7466   2.0000                                                             
     2  1  1.50    -12310.9591   6.0000                                                             
     3  0  0.50     -3362.1768   2.0000                                                             
     3  1  1.50     -2801.5463   6.0000                                                             
     3  2  2.50     -2203.8206  10.0000                                                             
     4  0  0.50      -729.8168   2.0000                                                             
     4  1  1.50      -546.0527   6.0000                                                             
     4  2  2.50      -325.7302  10.0000                                                             
     4  3  3.50       -81.1472  14.0000                                                             
     5  0  0.50      -108.3201   2.0000                                                             
     5  1  1.50       -59.7479   6.0000                                                             
     5  2  2.50        -6.8783  10.0000                                                             
     6  0  0.50        -5.7602   1.0000                                                             
     6  1  1.50        -6.8029   0.0000                                                             
     5  3  2.50        -1.3606   0.0000                                                             
   Description                                                                                      
     l       E           TYP  RCUT    TYP  RCUT                                                     
     2     -6.8782861     23  2.500                                                                 
     2     -8.2388687     23  2.500                                                                 
     0     -5.7601759     23  2.500                                                                 
     0     -0.8493231     23  2.500                                                                 
     1     -2.7211652     23  2.500                                                                 
     1     27.2116520     23  2.500                                                                 
     3     -1.3605826     23  2.500                                                                 
  local pseudopotential read in
  partial core-charges read in
  partial kinetic energy density read in
  atomic valenz-charges read in
  non local Contribution for L=           2  read in
    real space projection operators read in
  non local Contribution for L=           2  read in
    real space projection operators read in
  non local Contribution for L=           0  read in
    real space projection operators read in
  non local Contribution for L=           0  read in
    real space projection operators read in
  non local Contribution for L=           1  read in
    real space projection operators read in
  non local Contribution for L=           1  read in
    real space projection operators read in
    PAW grid and wavefunctions read in
 
   number of l-projection  operators is LMAX  =           6
   number of lm-projection operators is LMMAX =          18
 
  PAW_PBE Au 04Oct2007                  :
 energy of atom  1       EATOM= -926.0867
 kinetic energy error for atom=    0.0034 (will be added to EATOM!!)
 
 
 POSCAR: Au4
  positions in direct lattice
  velocities in cartesian coordinates
 exchange correlation table for  LEXCH =        8
   RHO(1)=    0.500       N(1)  =     2000
   RHO(2)=  100.500       N(2)  =     4000
 


--------------------------------------------------------------------------------------------------------


 ion  position               nearest neighbor table
   1  0.000  0.000  0.000-   2 2.94   3 2.94   4 2.94   2 2.94   3 2.94   2 2.94   4 2.94   2 2.94
                             3 2.94   4 2.94   3 2.94   4 2.94
   2  0.000  0.500  0.500-   1 2.94   3 2.94   4 2.94   1 2.94   4 2.94   1 2.94   3 2.94   1 2.94
                             3 2.94   4 2.94   4 2.94   3 2.94
   3  0.500  0.000  0.500-   1 2.94   2 2.94   4 2.94   1 2.94   4 2.94   2 2.94   4 2.94   4 2.94
                             1 2.94   2 2.94   1 2.94   2 2.94
   4  0.500  0.500  0.000-   1 2.94   2 2.94   3 2.94   2 2.94   3 2.94   1 2.94   3 2.94   3 2.94
                             1 2.94   2 2.94   2 2.94   1 2.94
 
  LATTYP: Found a simple cubic cell.
 ALAT       =     4.1612474485
  
  Lattice vectors:
  
 A1 = (   4.1612474485,   0.0000000000,   0.0000000000)
 A2 = (   0.0000000000,   4.1612474485,   0.0000000000)
 A3 = (   0.0000000000,   0.0000000000,   4.1612474485)


Analysis of symmetry for initial positions (statically):
=====================================================================
 Subroutine PRICEL returns following result:
 
  LATTYP: Found a face centered cubic cell.
 ALAT       =     4.1612474485
  
  Lattice vectors:
  
 A1 = (   2.0806237243,   2.0806237243,   0.0000000000)
 A2 = (   2.0806237243,   0.0000000000,  -2.0806237243)
 A3 = (   0.0000000000,   2.0806237243,  -2.0806237243)
 
   4 primitive cells build up your supercell.
 

 Routine SETGRP: Setting up the symmetry group for a 
 simple cubic supercell.


 Subroutine GETGRP returns: Found 48 space group operations
 (whereof 48 operations were pure point group operations)
 out of a pool of 48 trial point group operations.


The static configuration has the point symmetry O_h .


Analysis of symmetry for dynamics (positions and initial velocities):
=====================================================================
 Subroutine PRICEL returns following result:
 
  LATTYP: Found a face centered cubic cell.
 ALAT       =     4.1612474485
  
  Lattice vectors:
  
 A1 = (   2.0806237243,   2.0806237243,   0.0000000000)
 A2 = (   2.0806237243,   0.0000000000,  -2.0806237243)
 A3 = (   0.0000000000,   2.0806237243,  -2.0806237243)
 
   4 primitive cells build up your supercell.
 

 Routine SETGRP: Setting up the symmetry group for a 
 simple cubic supercell.


 Subroutine GETGRP returns: Found 48 space group operations
 (whereof 48 operations were pure point group operations)
 out of a pool of 48 trial point group operations.


The dynamic configuration has the point symmetry O_h .


 Subroutine INISYM returns: Found 48 space group operations
 (whereof 48 operations are pure point group operations),
 and found     4 'primitive' translations


----------------------------------------------------------------------------------------

                                     Primitive cell                                     

  volume of cell :      18.0140

  direct lattice vectors                    reciprocal lattice vectors
     2.080623724  2.080623724  0.000000000     0.240312553  0.240312553  0.240312553
     2.080623724  0.000000000 -2.080623724     0.240312553 -0.240312553 -0.240312553
     0.000000000  2.080623724 -2.080623724    -0.240312553  0.240312553 -0.240312553

  length of vectors
     2.942446289  2.942446289  2.942446289     0.416233552  0.416233552  0.416233552

  position of ions in fractional coordinates (direct lattice)
     0.000000000  0.000000000  0.000000000

  ion indices of the primitive-cell ions
   primitive index   ion index
                 1           1

----------------------------------------------------------------------------------------

 
 
 KPOINTS: pymatgen with grid density = 882 / numbe

Automatic generation of k-mesh.
Space group operators:
 irot       det(A)        alpha          n_x          n_y          n_z        tau_x        tau_y        tau_z
    1     1.000000     0.000000     1.000000     0.000000     0.000000     0.000000     0.000000     0.000000
    2    -1.000000     0.000000     1.000000     0.000000     0.000000     0.000000     0.000000     0.000000
    3     1.000000   120.000000    -0.577350    -0.577350    -0.577350     0.000000     0.000000     0.000000
    4    -1.000000   120.000000    -0.577350    -0.577350    -0.577350     0.000000     0.000000     0.000000
    5     1.000000   120.000000     0.577350     0.577350     0.577350     0.000000     0.000000     0.000000
    6    -1.000000   120.000000     0.577350     0.577350     0.577350     0.000000     0.000000     0.000000
    7     1.000000    90.000000     0.000000     0.000000    -1.000000     0.000000     0.000000     0.000000
    8    -1.000000    90.000000     0.000000     0.000000    -1.000000     0.000000     0.000000     0.000000
    9     1.000000   180.000000     0.000000     0.707107     0.707107     0.000000     0.000000     0.000000
   10    -1.000000   180.000000     0.000000     0.707107     0.707107     0.000000     0.000000     0.000000
   11     1.000000    90.000000     0.000000     1.000000     0.000000     0.000000     0.000000     0.000000
   12    -1.000000    90.000000     0.000000     1.000000     0.000000     0.000000     0.000000     0.000000
   13     1.000000   180.000000     0.000000     0.000000     1.000000     0.000000     0.000000     0.000000
   14    -1.000000   180.000000     0.000000     0.000000     1.000000     0.000000     0.000000     0.000000
   15     1.000000   120.000000    -0.577350     0.577350     0.577350     0.000000     0.000000     0.000000
   16    -1.000000   120.000000    -0.577350     0.577350     0.577350     0.000000     0.000000     0.000000
   17     1.000000   120.000000    -0.577350     0.577350    -0.577350     0.000000     0.000000     0.000000
   18    -1.000000   120.000000    -0.577350     0.577350    -0.577350     0.000000     0.000000     0.000000
   19     1.000000    90.000000     0.000000     0.000000     1.000000     0.000000     0.000000     0.000000
   20    -1.000000    90.000000     0.000000     0.000000     1.000000     0.000000     0.000000     0.000000
   21     1.000000    90.000000    -1.000000     0.000000     0.000000     0.000000     0.000000     0.000000
   22    -1.000000    90.000000    -1.000000     0.000000     0.000000     0.000000     0.000000     0.000000
   23     1.000000   180.000000     0.707107     0.000000     0.707107     0.000000     0.000000     0.000000
   24    -1.000000   180.000000     0.707107     0.000000     0.707107     0.000000     0.000000     0.000000
   25     1.000000   120.000000     0.577350    -0.577350     0.577350     0.000000     0.000000     0.000000
   26    -1.000000   120.000000     0.577350    -0.577350     0.577350     0.000000     0.000000     0.000000
   27     1.000000   120.000000    -0.577350    -0.577350     0.577350     0.000000     0.000000     0.000000
   28    -1.000000   120.000000    -0.577350    -0.577350     0.577350     0.000000     0.000000     0.000000
   29     1.000000   180.000000     1.000000     0.000000     0.000000     0.000000     0.000000     0.000000
   30    -1.000000   180.000000     1.000000     0.000000     0.000000     0.000000     0.000000     0.000000
   31     1.000000    90.000000     0.000000    -1.000000     0.000000     0.000000     0.000000     0.000000
   32    -1.000000    90.000000     0.000000    -1.000000     0.000000     0.000000     0.000000     0.000000
   33     1.000000   180.000000     0.707107     0.707107     0.000000     0.000000     0.000000     0.000000
   34    -1.000000   180.000000     0.707107     0.707107     0.000000     0.000000     0.000000     0.000000
   35     1.000000    90.000000     1.000000     0.000000     0.000000     0.000000     0.000000     0.000000
   36    -1.000000    90.000000     1.000000     0.000000     0.000000     0.000000     0.000000     0.000000
   37     1.000000   120.000000     0.577350    -0.577350    -0.577350     0.000000     0.000000     0.000000
   38    -1.000000   120.000000     0.577350    -0.577350    -0.577350     0.000000     0.000000     0.000000
   39     1.000000   180.000000     0.000000     1.000000     0.000000     0.000000     0.000000     0.000000
   40    -1.000000   180.000000     0.000000     1.000000     0.000000     0.000000     0.000000     0.000000
   41     1.000000   120.000000     0.577350     0.577350    -0.577350     0.000000     0.000000     0.000000
   42    -1.000000   120.000000     0.577350     0.577350    -0.577350     0.000000     0.000000     0.000000
   43     1.000000   180.000000     0.000000    -0.707107     0.707107     0.000000     0.000000     0.000000
   44    -1.000000   180.000000     0.000000    -0.707107     0.707107     0.000000     0.000000     0.000000
   45     1.000000   180.000000     0.707107    -0.707107     0.000000     0.000000     0.000000     0.000000
   46    -1.000000   180.000000     0.707107    -0.707107     0.000000     0.000000     0.000000     0.000000
   47     1.000000   180.000000     0.707107     0.000000    -0.707107     0.000000     0.000000     0.000000
   48    -1.000000   180.000000     0.707107     0.000000    -0.707107     0.000000     0.000000     0.000000
 
 Subroutine IBZKPT returns following result:
 ===========================================
 
 Found     10 irreducible k-points:
 
 Following reciprocal coordinates:
            Coordinates               Weight
  0.083333  0.083333  0.083333      8.000000
  0.250000  0.083333  0.083333     24.000000
  0.416667  0.083333  0.083333     24.000000
  0.250000  0.250000  0.083333     24.000000
  0.416667  0.250000  0.083333     48.000000
  0.416667  0.416667  0.083333     24.000000
  0.250000  0.250000  0.250000      8.000000
  0.416667  0.250000  0.250000     24.000000
  0.416667  0.416667  0.250000     24.000000
  0.416667  0.416667  0.416667      8.000000
 
 Following cartesian coordinates:
            Coordinates               Weight
  0.020026  0.020026  0.020026      8.000000
  0.060078  0.020026  0.020026     24.000000
  0.100130  0.020026  0.020026     24.000000
  0.060078  0.060078  0.020026     24.000000
  0.100130  0.060078  0.020026     48.000000
  0.100130  0.100130  0.020026     24.000000
  0.060078  0.060078  0.060078      8.000000
  0.100130  0.060078  0.060078     24.000000
  0.100130  0.100130  0.060078     24.000000
  0.100130  0.100130  0.100130      8.000000
 
 
 Subroutine IBZKPT_HF returns following result:
 ==============================================
 
 Found    216 k-points in 1st BZ
 the following    216 k-points will be used (e.g. in the exchange kernel)
 Following reciprocal coordinates:   # in IRBZ
  0.083333  0.083333  0.083333    0.00462963   1 t-inv F
  0.250000  0.083333  0.083333    0.00462963   2 t-inv F
  0.416667  0.083333  0.083333    0.00462963   3 t-inv F
  0.250000  0.250000  0.083333    0.00462963   4 t-inv F
  0.416667  0.250000  0.083333    0.00462963   5 t-inv F
  0.416667  0.416667  0.083333    0.00462963   6 t-inv F
  0.250000  0.250000  0.250000    0.00462963   7 t-inv F
  0.416667  0.250000  0.250000    0.00462963   8 t-inv F
  0.416667  0.416667  0.250000    0.00462963   9 t-inv F
  0.416667  0.416667  0.416667    0.00462963  10 t-inv F
 -0.083333 -0.083333 -0.083333    0.00462963   1 t-inv F
 -0.083333  0.083333  0.083333    0.00462963   1 t-inv F
  0.083333 -0.083333 -0.083333    0.00462963   1 t-inv F
 -0.083333 -0.083333  0.083333    0.00462963   1 t-inv F
  0.083333  0.083333 -0.083333    0.00462963   1 t-inv F
  0.083333 -0.083333  0.083333    0.00462963   1 t-inv F
 -0.083333  0.083333 -0.083333    0.00462963   1 t-inv F
 -0.250000 -0.083333 -0.083333    0.00462963   2 t-inv F
  0.083333  0.250000  0.083333    0.00462963   2 t-inv F
 -0.083333 -0.250000 -0.083333    0.00462963   2 t-inv F
  0.083333  0.083333  0.250000    0.00462963   2 t-inv F
 -0.083333 -0.083333 -0.250000    0.00462963   2 t-inv F
 -0.083333  0.250000  0.083333    0.00462963   2 t-inv F
  0.083333 -0.250000 -0.083333    0.00462963   2 t-inv F
 -0.250000  0.083333  0.083333    0.00462963   2 t-inv F
  0.250000 -0.083333 -0.083333    0.00462963   2 t-inv F
 -0.083333  0.083333  0.250000    0.00462963   2 t-inv F
  0.083333 -0.083333 -0.250000    0.00462963   2 t-inv F
 -0.250000 -0.083333  0.083333    0.00462963   2 t-inv F
  0.250000  0.083333 -0.083333    0.00462963   2 t-inv F
 -0.083333 -0.250000  0.083333    0.00462963   2 t-inv F
  0.083333  0.250000 -0.083333    0.00462963   2 t-inv F
 -0.083333 -0.083333  0.250000    0.00462963   2 t-inv F
  0.083333  0.083333 -0.250000    0.00462963   2 t-inv F
  0.083333 -0.250000  0.083333    0.00462963   2 t-inv F
 -0.083333  0.250000 -0.083333    0.00462963   2 t-inv F
  0.250000 -0.083333  0.083333    0.00462963   2 t-inv F
 -0.250000  0.083333 -0.083333    0.00462963   2 t-inv F
  0.083333 -0.083333  0.250000    0.00462963   2 t-inv F
 -0.083333  0.083333 -0.250000    0.00462963   2 t-inv F
 -0.416667 -0.083333 -0.083333    0.00462963   3 t-inv F
  0.083333  0.416667  0.083333    0.00462963   3 t-inv F
 -0.083333 -0.416667 -0.083333    0.00462963   3 t-inv F
  0.083333  0.083333  0.416667    0.00462963   3 t-inv F
 -0.083333 -0.083333 -0.416667    0.00462963   3 t-inv F
 -0.083333  0.416667  0.083333    0.00462963   3 t-inv F
  0.083333 -0.416667 -0.083333    0.00462963   3 t-inv F
 -0.416667  0.083333  0.083333    0.00462963   3 t-inv F
  0.416667 -0.083333 -0.083333    0.00462963   3 t-inv F
 -0.083333  0.083333  0.416667    0.00462963   3 t-inv F
  0.083333 -0.083333 -0.416667    0.00462963   3 t-inv F
 -0.416667 -0.083333  0.083333    0.00462963   3 t-inv F
  0.416667  0.083333 -0.083333    0.00462963   3 t-inv F
 -0.083333 -0.416667  0.083333    0.00462963   3 t-inv F
  0.083333  0.416667 -0.083333    0.00462963   3 t-inv F
 -0.083333 -0.083333  0.416667    0.00462963   3 t-inv F
  0.083333  0.083333 -0.416667    0.00462963   3 t-inv F
  0.083333 -0.416667  0.083333    0.00462963   3 t-inv F
 -0.083333  0.416667 -0.083333    0.00462963   3 t-inv F
  0.416667 -0.083333  0.083333    0.00462963   3 t-inv F
 -0.416667  0.083333 -0.083333    0.00462963   3 t-inv F
  0.083333 -0.083333  0.416667    0.00462963   3 t-inv F
 -0.083333  0.083333 -0.416667    0.00462963   3 t-inv F
 -0.250000 -0.250000 -0.083333    0.00462963   4 t-inv F
  0.083333  0.250000  0.250000    0.00462963   4 t-inv F
 -0.083333 -0.250000 -0.250000    0.00462963   4 t-inv F
  0.250000  0.083333  0.250000    0.00462963   4 t-inv F
 -0.250000 -0.083333 -0.250000    0.00462963   4 t-inv F
 -0.250000  0.250000  0.083333    0.00462963   4 t-inv F
  0.250000 -0.250000 -0.083333    0.00462963   4 t-inv F
 -0.250000  0.083333  0.250000    0.00462963   4 t-inv F
  0.250000 -0.083333 -0.250000    0.00462963   4 t-inv F
 -0.083333  0.250000  0.250000    0.00462963   4 t-inv F
  0.083333 -0.250000 -0.250000    0.00462963   4 t-inv F
 -0.250000 -0.250000  0.083333    0.00462963   4 t-inv F
  0.250000  0.250000 -0.083333    0.00462963   4 t-inv F
 -0.083333 -0.250000  0.250000    0.00462963   4 t-inv F
  0.083333  0.250000 -0.250000    0.00462963   4 t-inv F
 -0.250000 -0.083333  0.250000    0.00462963   4 t-inv F
  0.250000  0.083333 -0.250000    0.00462963   4 t-inv F
  0.250000 -0.250000  0.083333    0.00462963   4 t-inv F
 -0.250000  0.250000 -0.083333    0.00462963   4 t-inv F
  0.250000 -0.083333  0.250000    0.00462963   4 t-inv F
 -0.250000  0.083333 -0.250000    0.00462963   4 t-inv F
  0.083333 -0.250000  0.250000    0.00462963   4 t-inv F
 -0.083333  0.250000 -0.250000    0.00462963   4 t-inv F
 -0.416667 -0.250000 -0.083333    0.00462963   5 t-inv F
  0.083333  0.416667  0.250000    0.00462963   5 t-inv F
 -0.083333 -0.416667 -0.250000    0.00462963   5 t-inv F
  0.250000  0.083333  0.416667    0.00462963   5 t-inv F
 -0.250000 -0.083333 -0.416667    0.00462963   5 t-inv F
 -0.250000  0.416667  0.083333    0.00462963   5 t-inv F
  0.250000 -0.416667 -0.083333    0.00462963   5 t-inv F
 -0.416667  0.083333  0.250000    0.00462963   5 t-inv F
  0.416667 -0.083333 -0.250000    0.00462963   5 t-inv F
 -0.083333  0.250000  0.416667    0.00462963   5 t-inv F
  0.083333 -0.250000 -0.416667    0.00462963   5 t-inv F
 -0.416667 -0.250000  0.083333    0.00462963   5 t-inv F
  0.416667  0.250000 -0.083333    0.00462963   5 t-inv F
 -0.083333 -0.416667  0.250000    0.00462963   5 t-inv F
  0.083333  0.416667 -0.250000    0.00462963   5 t-inv F
 -0.250000 -0.083333  0.416667    0.00462963   5 t-inv F
  0.250000  0.083333 -0.416667    0.00462963   5 t-inv F
  0.250000 -0.416667  0.083333    0.00462963   5 t-inv F
 -0.250000  0.416667 -0.083333    0.00462963   5 t-inv F
  0.416667 -0.083333  0.250000    0.00462963   5 t-inv F
 -0.416667  0.083333 -0.250000    0.00462963   5 t-inv F
  0.083333 -0.250000  0.416667    0.00462963   5 t-inv F
 -0.083333  0.250000 -0.416667    0.00462963   5 t-inv F
  0.083333 -0.416667 -0.250000    0.00462963   5 t-inv F
 -0.083333  0.416667  0.250000    0.00462963   5 t-inv F
  0.250000 -0.083333 -0.416667    0.00462963   5 t-inv F
 -0.250000  0.083333  0.416667    0.00462963   5 t-inv F
  0.416667 -0.250000 -0.083333    0.00462963   5 t-inv F
 -0.416667  0.250000  0.083333    0.00462963   5 t-inv F
  0.083333  0.250000 -0.416667    0.00462963   5 t-inv F
 -0.083333 -0.250000  0.416667    0.00462963   5 t-inv F
  0.250000  0.416667 -0.083333    0.00462963   5 t-inv F
 -0.250000 -0.416667  0.083333    0.00462963   5 t-inv F
  0.416667  0.083333 -0.250000    0.00462963   5 t-inv F
 -0.416667 -0.083333  0.250000    0.00462963   5 t-inv F
 -0.250000  0.083333 -0.416667    0.00462963   5 t-inv F
  0.250000 -0.083333  0.416667    0.00462963   5 t-inv F
 -0.416667  0.250000 -0.083333    0.00462963   5 t-inv F
  0.416667 -0.250000  0.083333    0.00462963   5 t-inv F
 -0.083333  0.416667 -0.250000    0.00462963   5 t-inv F
  0.083333 -0.416667  0.250000    0.00462963   5 t-inv F
 -0.416667 -0.083333 -0.250000    0.00462963   5 t-inv F
  0.416667  0.083333  0.250000    0.00462963   5 t-inv F
 -0.250000 -0.416667 -0.083333    0.00462963   5 t-inv F
  0.250000  0.416667  0.083333    0.00462963   5 t-inv F
 -0.083333 -0.250000 -0.416667    0.00462963   5 t-inv F
  0.083333  0.250000  0.416667    0.00462963   5 t-inv F
 -0.416667 -0.416667 -0.083333    0.00462963   6 t-inv F
  0.083333  0.416667  0.416667    0.00462963   6 t-inv F
 -0.083333 -0.416667 -0.416667    0.00462963   6 t-inv F
  0.416667  0.083333  0.416667    0.00462963   6 t-inv F
 -0.416667 -0.083333 -0.416667    0.00462963   6 t-inv F
 -0.416667  0.416667  0.083333    0.00462963   6 t-inv F
  0.416667 -0.416667 -0.083333    0.00462963   6 t-inv F
 -0.416667  0.083333  0.416667    0.00462963   6 t-inv F
  0.416667 -0.083333 -0.416667    0.00462963   6 t-inv F
 -0.083333  0.416667  0.416667    0.00462963   6 t-inv F
  0.083333 -0.416667 -0.416667    0.00462963   6 t-inv F
 -0.416667 -0.416667  0.083333    0.00462963   6 t-inv F
  0.416667  0.416667 -0.083333    0.00462963   6 t-inv F
 -0.083333 -0.416667  0.416667    0.00462963   6 t-inv F
  0.083333  0.416667 -0.416667    0.00462963   6 t-inv F
 -0.416667 -0.083333  0.416667    0.00462963   6 t-inv F
  0.416667  0.083333 -0.416667    0.00462963   6 t-inv F
  0.416667 -0.416667  0.083333    0.00462963   6 t-inv F
 -0.416667  0.416667 -0.083333    0.00462963   6 t-inv F
  0.416667 -0.083333  0.416667    0.00462963   6 t-inv F
 -0.416667  0.083333 -0.416667    0.00462963   6 t-inv F
  0.083333 -0.416667  0.416667    0.00462963   6 t-inv F
 -0.083333  0.416667 -0.416667    0.00462963   6 t-inv F
 -0.250000 -0.250000 -0.250000    0.00462963   7 t-inv F
 -0.250000  0.250000  0.250000    0.00462963   7 t-inv F
  0.250000 -0.250000 -0.250000    0.00462963   7 t-inv F
 -0.250000 -0.250000  0.250000    0.00462963   7 t-inv F
  0.250000  0.250000 -0.250000    0.00462963   7 t-inv F
  0.250000 -0.250000  0.250000    0.00462963   7 t-inv F
 -0.250000  0.250000 -0.250000    0.00462963   7 t-inv F
 -0.416667 -0.250000 -0.250000    0.00462963   8 t-inv F
  0.250000  0.416667  0.250000    0.00462963   8 t-inv F
 -0.250000 -0.416667 -0.250000    0.00462963   8 t-inv F
  0.250000  0.250000  0.416667    0.00462963   8 t-inv F
 -0.250000 -0.250000 -0.416667    0.00462963   8 t-inv F
 -0.250000  0.416667  0.250000    0.00462963   8 t-inv F
  0.250000 -0.416667 -0.250000    0.00462963   8 t-inv F
 -0.416667  0.250000  0.250000    0.00462963   8 t-inv F
  0.416667 -0.250000 -0.250000    0.00462963   8 t-inv F
 -0.250000  0.250000  0.416667    0.00462963   8 t-inv F
  0.250000 -0.250000 -0.416667    0.00462963   8 t-inv F
 -0.416667 -0.250000  0.250000    0.00462963   8 t-inv F
  0.416667  0.250000 -0.250000    0.00462963   8 t-inv F
 -0.250000 -0.416667  0.250000    0.00462963   8 t-inv F
  0.250000  0.416667 -0.250000    0.00462963   8 t-inv F
 -0.250000 -0.250000  0.416667    0.00462963   8 t-inv F
  0.250000  0.250000 -0.416667    0.00462963   8 t-inv F
  0.250000 -0.416667  0.250000    0.00462963   8 t-inv F
 -0.250000  0.416667 -0.250000    0.00462963   8 t-inv F
  0.416667 -0.250000  0.250000    0.00462963   8 t-inv F
 -0.416667  0.250000 -0.250000    0.00462963   8 t-inv F
  0.250000 -0.250000  0.416667    0.00462963   8 t-inv F
 -0.250000  0.250000 -0.416667    0.00462963   8 t-inv F
 -0.416667 -0.416667 -0.250000    0.00462963   9 t-inv F
  0.250000  0.416667  0.416667    0.00462963   9 t-inv F
 -0.250000 -0.416667 -0.416667    0.00462963   9 t-inv F
  0.416667  0.250000  0.416667    0.00462963   9 t-inv F
 -0.416667 -0.250000 -0.416667    0.00462963   9 t-inv F
 -0.416667  0.416667  0.250000    0.00462963   9 t-inv F
  0.416667 -0.416667 -0.250000    0.00462963   9 t-inv F
 -0.416667  0.250000  0.416667    0.00462963   9 t-inv F
  0.416667 -0.250000 -0.416667    0.00462963   9 t-inv F
 -0.250000  0.416667  0.416667    0.00462963   9 t-inv F
  0.250000 -0.416667 -0.416667    0.00462963   9 t-inv F
 -0.416667 -0.416667  0.250000    0.00462963   9 t-inv F
  0.416667  0.416667 -0.250000    0.00462963   9 t-inv F
 -0.250000 -0.416667  0.416667    0.00462963   9 t-inv F
  0.250000  0.416667 -0.416667    0.00462963   9 t-inv F
 -0.416667 -0.250000  0.416667    0.00462963   9 t-inv F
  0.416667  0.250000 -0.416667    0.00462963   9 t-inv F
  0.416667 -0.416667  0.250000    0.00462963   9 t-inv F
 -0.416667  0.416667 -0.250000    0.00462963   9 t-inv F
  0.416667 -0.250000  0.416667    0.00462963   9 t-inv F
 -0.416667  0.250000 -0.416667    0.00462963   9 t-inv F
  0.250000 -0.416667  0.416667    0.00462963   9 t-inv F
 -0.250000  0.416667 -0.416667    0.00462963   9 t-inv F
 -0.416667 -0.416667 -0.416667    0.00462963  10 t-inv F
 -0.416667  0.416667  0.416667    0.00462963  10 t-inv F
  0.416667 -0.416667 -0.416667    0.00462963  10 t-inv F
 -0.416667 -0.416667  0.416667    0.00462963  10 t-inv F
  0.416667  0.416667 -0.416667    0.00462963  10 t-inv F
  0.416667 -0.416667  0.416667    0.00462963  10 t-inv F
 -0.416667  0.416667 -0.416667    0.00462963  10 t-inv F


--------------------------------------------------------------------------------------------------------




 Dimension of arrays:
   k-points           NKPTS =     10   k-points in BZ     NKDIM =     10   number of bands    NBANDS=     64
   number of dos      NEDOS =    301   number of ions     NIONS =      4
   non local maximal  LDIM  =      6   non local SUM 2l+1 LMDIM =     18
   total plane-waves  NPLWV =  13824
   max r-space proj   IRMAX =      1   max aug-charges    IRDMAX=  11930
   dimension x,y,z NGX =    24 NGY =   24 NGZ =   24
   dimension x,y,z NGXF=    48 NGYF=   48 NGZF=   48
   support grid    NGXF=    48 NGYF=   48 NGZF=   48
   ions per type =               4
   NGX,Y,Z   is equivalent  to a cutoff of   9.59,  9.59,  9.59 a.u.
   NGXF,Y,Z  is equivalent  to a cutoff of  19.18, 19.18, 19.18 a.u.

 SYSTEM =  unknown system                          
 POSCAR =  Au4                                     

 Startparameter for this run:
   NWRITE =      2    write-flag & timer
   PREC   = normal    normal or accurate (medium, high low for compatibility)
   ISTART =      0    job   : 0-new  1-cont  2-samecut
   ICHARG =      2    charge: 1-file 2-atom 10-const
   ISPIN  =      1    spin polarized calculation?
   LNONCOLLINEAR =      F non collinear calculations
   LSORBIT =      F    spin-orbit coupling
   INIWAV =      1    electr: 0-lowe 1-rand  2-diag
   LASPH  =      F    aspherical Exc in radial PAW
   METAGGA=      F    non-selfconsistent MetaGGA calc.

 Electronic Relaxation 1
   ENCUT  =  520.0 eV  38.22 Ry    6.18 a.u.   7.74  7.74  7.74*2*pi/ulx,y,z
   ENINI  =  520.0     initial cutoff
   ENAUG  =  356.7 eV  augmentation charge cutoff
   NELM   =     60;   NELMIN=  2; NELMDL= -5     # of ELM steps 
   EDIFF  = 0.1E-04   stopping-criterion for ELM
   LREAL  =      F    real-space projection
   NLSPLINE    = F    spline interpolate recip. space projectors
   LCOMPAT=      F    compatible to vasp.4.4
   GGA_COMPAT  = T    GGA compatible to vasp.4.4-vasp.4.6
   LMAXPAW     = -100 max onsite density
   LMAXMIX     =    2 max onsite mixed and CHGCAR
   VOSKOWN=      0    Vosko Wilk Nusair interpolation
   ROPT   =    0.00000
 Ionic relaxation
   EDIFFG = -.1E-07   stopping-criterion for IOM
   NSW    =     85    number of steps for IOM
   NBLOCK =      1;   KBLOCK =     85    inner block; outer block 
   IBRION =      6    ionic relax: 0-MD 1-quasi-New 2-CG
   NFREE  =      2    steps in history (QN), initial steepest desc. (CG)
   ISIF   =      4    stress and relaxation
   IWAVPR =     11    prediction:  0-non 1-charg 2-wave 3-comb
   ISYM   =      2    0-nonsym 1-usesym 2-fastsym
   LCORR  =      T    Harris-Foulkes like correction to forces

   POTIM  = 0.0500    time-step for ionic-motion
   TEIN   =    0.0    initial temperature
   TEBEG  =    0.0;   TEEND  =   0.0 temperature during run
   SMASS  =  -3.00    Nose mass-parameter (am)
   estimated Nose-frequenzy (Omega)   =  0.10E-29 period in steps = 0.13E+48 mass=  -0.396E-27a.u.
   SCALEE = 1.0000    scale energy and forces
   NPACO  =    256;   APACO  = 16.0  distance and # of slots for P.C.
   PSTRESS=    0.0 pullay stress

  Mass of Ions in am
   POMASS = 196.97
  Ionic Valenz
   ZVAL   =  11.00
  Atomic Wigner-Seitz radii
   RWIGS  =  -1.00
  virtual crystal weights 
   VCA    =   1.00
   NELECT =      44.0000    total number of electrons
   NUPDOWN=      -1.0000    fix difference up-down

 DOS related values:
   EMIN   =  10.00;   EMAX   =-10.00  energy-range for DOS
   EFERMI =   0.00
   ISMEAR =    -1;   SIGMA  =   0.10  broadening in eV -4-tet -1-fermi 0-gaus

 Electronic relaxation 2 (details)
   IALGO  =     38    algorithm
   LDIAG  =      T    sub-space diagonalisation (order eigenvalues)
   LSUBROT=      F    optimize rotation matrix (better conditioning)
   TURBO    =      0    0=normal 1=particle mesh
   IRESTART =      0    0=no restart 2=restart with 2 vectors
   NREBOOT  =      0    no. of reboots
   NMIN     =      0    reboot dimension
   EREF     =   0.00    reference energy to select bands
   IMIX   =      4    mixing-type and parameters
     AMIX     =   0.40;   BMIX     =  1.00
     AMIX_MAG =   1.60;   BMIX_MAG =  1.00
     AMIN     =   0.10
     WC   =   100.;   INIMIX=   1;  MIXPRE=   1;  MAXMIX= -45

 Intra band minimization:
   WEIMIN = 0.0010     energy-eigenvalue tresh-hold
   EBREAK =  0.39E-11  absolut break condition
   DEPER  =   0.30     relativ break condition  

   TIME   =   0.40     timestep for ELM

  volume/ion in A,a.u.               =      18.01       121.56
  Fermi-wavevector in a.u.,A,eV,Ry     =   1.388893  2.624628 26.245969  1.929024
  Thomas-Fermi vector in A             =   2.512976
 
 Write flags
   LWAVE        =      T    write WAVECAR
   LDOWNSAMPLE  =      F    k-point downsampling of WAVECAR
   LCHARG       =      T    write CHGCAR
   LVTOT        =      F    write LOCPOT, total local potential
   LVHAR        =      F    write LOCPOT, Hartree potential only
   LELF         =      F    write electronic localiz. function (ELF)
   LORBIT       =      0    0 simple, 1 ext, 2 COOP (PROOUT), +10 PAW based schemes


 Dipole corrections
   LMONO  =      F    monopole corrections only (constant potential shift)
   LDIPOL =      F    correct potential (dipole corrections)
   IDIPOL =      0    1-x, 2-y, 3-z, 4-all directions 
   EPSILON=  1.0000000 bulk dielectric constant

 Exchange correlation treatment:
   GGA     =    --    GGA type
   LEXCH   =     8    internal setting for exchange type
   VOSKOWN=      0    Vosko Wilk Nusair interpolation
   LHFCALC =     F    Hartree Fock is set to
   LHFONE  =     F    Hartree Fock one center treatment
   AEXX    =    0.0000 exact exchange contribution

 Linear response parameters
   LEPSILON=     F    determine dielectric tensor
   LRPA    =     F    only Hartree local field effects (RPA)
   LNABLA  =     F    use nabla operator in PAW spheres
   LVEL    =     F    velocity operator in full k-point grid
   LINTERFAST=   F  fast interpolation
   KINTER  =     0    interpolate to denser k-point grid
   CSHIFT  =0.1000    complex shift for real part using Kramers Kronig
   OMEGAMAX=  -1.0    maximum frequency
   DEG_THRESHOLD= 0.2000000E-02 threshold for treating states as degnerate
   RTIME   =   -0.100 relaxation time in fs
  (WPLASMAI=    0.000 imaginary part of plasma frequency in eV, 0.658/RTIME)
   DFIELD  = 0.0000000 0.0000000 0.0000000 field for delta impulse in time
 
 Orbital magnetization related:
   ORBITALMAG=     F  switch on orbital magnetization
   LCHIMAG   =     F  perturbation theory with respect to B field
   DQ        =  0.001000  dq finite difference perturbation B field
   LLRAUG    =     F  two centre corrections for induced B field



--------------------------------------------------------------------------------------------------------


 finite differences with symmetry
 charge density and potential will be updated during run
 non-spin polarized calculation
 Variant of blocked Davidson
 Davidson routine will perform the subspace rotation
 perform sub-space diagonalisation
    after iterative eigenvector-optimisation
 modified Broyden-mixing scheme, WC =      100.0
 initial mixing is a Kerker type mixing with AMIX =  0.4000 and BMIX =      1.0000
 Hartree-type preconditioning will be used
 using additional bands           42
 reciprocal scheme for non local part
 use partial core corrections
 calculate Harris-corrections to forces 
   (improved forces if not selfconsistent)
 use gradient corrections 
 use of overlap-Matrix (Vanderbilt PP)
 Fermi-smearing in eV        SIGMA  =   0.10


--------------------------------------------------------------------------------------------------------


  energy-cutoff  :      520.00
  volume of cell :       72.06
      direct lattice vectors                 reciprocal lattice vectors
     4.161247449  0.000000000  0.000000000     0.240312553  0.000000000  0.000000000
     0.000000000  4.161247449  0.000000000     0.000000000  0.240312553  0.000000000
     0.000000000  0.000000000  4.161247449     0.000000000  0.000000000  0.240312553

  length of vectors
     4.161247449  4.161247449  4.161247449     0.240312553  0.240312553  0.240312553


 
 k-points in units of 2pi/SCALE and weight: pymatgen with grid density = 882 / numbe
   0.02002605  0.02002605  0.02002605       0.037
   0.06007814  0.02002605  0.02002605       0.111
   0.10013023  0.02002605  0.02002605       0.111
   0.06007814  0.06007814  0.02002605       0.111
   0.10013023  0.06007814  0.02002605       0.222
   0.10013023  0.10013023  0.02002605       0.111
   0.06007814  0.06007814  0.06007814       0.037
   0.10013023  0.06007814  0.06007814       0.111
   0.10013023  0.10013023  0.06007814       0.111
   0.10013023  0.10013023  0.10013023       0.037
 
 k-points in reciprocal lattice and weights: pymatgen with grid density = 882 / numbe
   0.08333333  0.08333333  0.08333333       0.037
   0.25000000  0.08333333  0.08333333       0.111
   0.41666667  0.08333333  0.08333333       0.111
   0.25000000  0.25000000  0.08333333       0.111
   0.41666667  0.25000000  0.08333333       0.222
   0.41666667  0.41666667  0.08333333       0.111
   0.25000000  0.25000000  0.25000000       0.037
   0.41666667  0.25000000  0.25000000       0.111
   0.41666667  0.41666667  0.25000000       0.111
   0.41666667  0.41666667  0.41666667       0.037
 
 position of ions in fractional coordinates (direct lattice) 
   0.00000000  0.00000000  0.00000000
   0.00000000  0.50000000  0.50000000
   0.50000000  0.00000000  0.50000000
   0.50000000  0.50000000  0.00000000
 
 position of ions in cartesian coordinates  (Angst):
   0.00000000  0.00000000  0.00000000
   0.00000000  2.08062372  2.08062372
   2.08062372  0.00000000  2.08062372
   2.08062372  2.08062372  0.00000000
 


--------------------------------------------------------------------------------------------------------


 k-point   1 :   0.0833 0.0833 0.0833  plane waves:    1935
 k-point   2 :   0.2500 0.0833 0.0833  plane waves:    1945
 k-point   3 :   0.4167 0.0833 0.0833  plane waves:    1949
 k-point   4 :   0.2500 0.2500 0.0833  plane waves:    1934
 k-point   5 :   0.4167 0.2500 0.0833  plane waves:    1940
 k-point   6 :   0.4167 0.4167 0.0833  plane waves:    1955
 k-point   7 :   0.2500 0.2500 0.2500  plane waves:    1926
 k-point   8 :   0.4167 0.2500 0.2500  plane waves:    1941
 k-point   9 :   0.4167 0.4167 0.2500  plane waves:    1935
 k-point  10 :   0.4167 0.4167 0.4167  plane waves:    1926

 maximum and minimum number of plane-waves per node :      1955     1926

 maximum number of plane-waves:      1955
 maximum index in each direction: 
   IXMAX=    7   IYMAX=    7   IZMAX=    7
   IXMIN=   -8   IYMIN=   -8   IZMIN=   -8


 serial   3D FFT for wavefunctions
 parallel 3D FFT for charge:
    minimum data exchange during FFTs selected (reduces bandwidth)


 total amount of memory used by VASP MPI-rank0    34210. kBytes
=======================================================================

   base      :      30000. kBytes
   nonl-proj :       2983. kBytes
   fftplans  :        153. kBytes
   grid      :        675. kBytes
   one-center:         62. kBytes
   wavefun   :        337. kBytes
 
     INWAV:  cpu time    0.0000: real time    0.0000
 Broyden mixing: mesh for mixing (old mesh)
   NGX = 15   NGY = 15   NGZ = 15
  (NGX  = 48   NGY  = 48   NGZ  = 48)
  gives a total of   3375 points

 initial charge density was supplied:
 charge density of overlapping atoms calculated
 number of electron      44.0000000 magnetization 
 keeping initial charge density in first step


--------------------------------------------------------------------------------------------------------


 Maximum index for augmentation-charges          609 (set IRDMAX)


--------------------------------------------------------------------------------------------------------


 First call to EWALD:  gamma=   0.426
 Maximum number of real-space cells 3x 3x 3
 Maximum number of reciprocal cells 3x 3x 3

    FEWALD:  cpu time    0.0150: real time    0.0153


--------------------------------------- Iteration      1(   1)  ---------------------------------------


    POTLOK:  cpu time    0.4187: real time    0.4351
    SETDIJ:  cpu time    0.2199: real time    0.2216
     EDDAV:  cpu time    4.2154: real time    4.4426
       DOS:  cpu time    0.0037: real time    0.0039
    --------------------------------------------
      LOOP:  cpu time    4.8578: real time    5.1031

 eigenvalue-minimisations  :  1280
 total energy-change (2. order) : 0.9660716E+02  (-0.2549516E+04)
 number of electron      44.0000000 magnetization 
 augmentation part       44.0000000 magnetization 

 Free energy of the ion-electron system (eV)
  ---------------------------------------------------
  alpha Z        PSCENC =       258.64211694
  Ewald energy   TEWEN  =     -3839.49562645
  -Hartree energ DENC   =      -524.74889951
  -exchange      EXHF   =         0.00000000
  -V(xc)+E(xc)   XCENC  =        61.87818796
  PAW double counting   =      3496.39001341    -3404.04053930
  entropy T*S    EENTRO =        -0.09338994
  eigenvalues    EBANDS =       343.74200798
  atomic energy  EATOM  =      3704.33328956
  Solvation  Ediel_sol  =         0.00000000
  ---------------------------------------------------
  free energy    TOTEN  =        96.60716065 eV

  energy without entropy =       96.70055059  energy(sigma->0) =       96.65385562


--------------------------------------------------------------------------------------------------------




--------------------------------------- Iteration      1(   2)  ---------------------------------------


     EDDAV:  cpu time    4.9003: real time    5.2020
       DOS:  cpu time    0.0042: real time    0.0044
    --------------------------------------------
      LOOP:  cpu time    4.9045: real time    5.2064

 eigenvalue-minimisations  :  2048
 total energy-change (2. order) :-0.1104188E+03  (-0.1093512E+03)
 number of electron      44.0000000 magnetization 
 augmentation part       44.0000000 magnetization 

 Free energy of the ion-electron system (eV)
  ---------------------------------------------------
  alpha Z        PSCENC =       258.64211694
  Ewald energy   TEWEN  =     -3839.49562645
  -Hartree energ DENC   =      -524.74889951
  -exchange      EXHF   =         0.00000000
  -V(xc)+E(xc)   XCENC  =        61.87818796
  PAW double counting   =      3496.39001341    -3404.04053930
  entropy T*S    EENTRO =        -0.06928819
  eigenvalues    EBANDS =       233.29911130
  atomic energy  EATOM  =      3704.33328956
  Solvation  Ediel_sol  =         0.00000000
  ---------------------------------------------------
  free energy    TOTEN  =       -13.81163429 eV

  energy without entropy =      -13.74234609  energy(sigma->0) =      -13.77699019


--------------------------------------------------------------------------------------------------------




--------------------------------------- Iteration      1(   3)  ---------------------------------------


     EDDAV:  cpu time    2.2373: real time    2.4422
       DOS:  cpu time    0.0036: real time    0.0037
    --------------------------------------------
      LOOP:  cpu time    2.2409: real time    2.4460

 eigenvalue-minimisations  :  1280
 total energy-change (2. order) :-0.1048665E+00  (-0.1048659E+00)
 number of electron      44.0000000 magnetization 
 augmentation part       44.0000000 magnetization 

 Free energy of the ion-electron system (eV)
  ---------------------------------------------------
  alpha Z        PSCENC =       258.64211694
  Ewald energy   TEWEN  =     -3839.49562645
  -Hartree energ DENC   =      -524.74889951
  -exchange      EXHF   =         0.00000000
  -V(xc)+E(xc)   XCENC  =        61.87818796
  PAW double counting   =      3496.39001341    -3404.04053930
  entropy T*S    EENTRO =        -0.06936075
  eigenvalues    EBANDS =       233.19431738
  atomic energy  EATOM  =      3704.33328956
  Solvation  Ediel_sol  =         0.00000000
  ---------------------------------------------------
  free energy    TOTEN  =       -13.91650076 eV

  energy without entropy =      -13.84714001  energy(sigma->0) =      -13.88182038


--------------------------------------------------------------------------------------------------------




--------------------------------------- Iteration      1(   4)  ---------------------------------------


     EDDAV:  cpu time    5.2343: real time    5.5916
       DOS:  cpu time    0.0033: real time    0.0034
    --------------------------------------------
      LOOP:  cpu time    5.2376: real time    5.5950

 eigenvalue-minimisations  :  2496
 total energy-change (2. order) :-0.7201051E-04  (-0.7201055E-04)
 number of electron      44.0000000 magnetization 
 augmentation part       44.0000000 magnetization 

 Free energy of the ion-electron system (eV)
  ---------------------------------------------------
  alpha Z        PSCENC =       258.64211694
  Ewald energy   TEWEN  =     -3839.49562645
  -Hartree energ DENC   =      -524.74889951
  -exchange      EXHF   =         0.00000000
  -V(xc)+E(xc)   XCENC  =        61.87818796
  PAW double counting   =      3496.39001341    -3404.04053930
  entropy T*S    EENTRO =        -0.06936078
  eigenvalues    EBANDS =       233.19424540
  atomic energy  EATOM  =      3704.33328956
  Solvation  Ediel_sol  =         0.00000000
  ---------------------------------------------------
  free energy    TOTEN  =       -13.91657277 eV

  energy without entropy =      -13.84721199  energy(sigma->0) =      -13.88189238


--------------------------------------------------------------------------------------------------------




--------------------------------------- Iteration      1(   5)  ---------------------------------------


     EDDAV:  cpu time    3.6861: real time    3.9050
       DOS:  cpu time    0.0032: real time    0.0034
    CHARGE:  cpu time    0.0264: real time    0.0278
    MIXING:  cpu time    0.0058: real time    0.0060
    --------------------------------------------
      LOOP:  cpu time    3.7215: real time    3.9421

 eigenvalue-minimisations  :  1280
 total energy-change (2. order) :-0.3046807E-09  (-0.2302492E-09)
 number of electron      43.9999970 magnetization 
 augmentation part       15.4639393 magnetization 

 Broyden mixing:
  rms(total) = 0.15846E+01    rms(broyden)= 0.15846E+01
  rms(prec ) = 0.20995E+01
  weight for this iteration     100.00

 Free energy of the ion-electron system (eV)
  ---------------------------------------------------
  alpha Z        PSCENC =       258.64211694
  Ewald energy   TEWEN  =     -3839.49562645
  -Hartree energ DENC   =      -524.74889951
  -exchange      EXHF   =         0.00000000
  -V(xc)+E(xc)   XCENC  =        61.87818796
  PAW double counting   =      3496.39001341    -3404.04053930
  entropy T*S    EENTRO =        -0.06936078
  eigenvalues    EBANDS =       233.19424540
  atomic energy  EATOM  =      3704.33328956
  Solvation  Ediel_sol  =         0.00000000
  ---------------------------------------------------
  free energy    TOTEN  =       -13.91657277 eV

  energy without entropy =      -13.84721199  energy(sigma->0) =      -13.88189238


--------------------------------------------------------------------------------------------------------




--------------------------------------- Iteration      1(   6)  ---------------------------------------


    POTLOK:  cpu time    0.2816: real time    0.2963
    SETDIJ:  cpu time    0.0030: real time    0.0031
     EDDAV:  cpu time    5.4674: real time    5.7812
       DOS:  cpu time    0.0136: real time    0.0146
    CHARGE:  cpu time    0.2389: real time    0.2424
    MIXING:  cpu time    0.0067: real time    0.0068
    --------------------------------------------
      LOOP:  cpu time    6.0113: real time    6.3443

 eigenvalue-minimisations  :  2048
 total energy-change (2. order) : 0.9906351E+00  (-0.3735126E+00)
 number of electron      43.9999969 magnetization 
 augmentation part       15.9849588 magnetization 

 Broyden mixing:
  rms(total) = 0.10415E+01    rms(broyden)= 0.10415E+01
  rms(prec ) = 0.10940E+01
  weight for this iteration     100.00

 eigenvalues of (default mixing * dielectric matrix)
  average eigenvalue GAMMA=   2.0330
  2.0330

 Free energy of the ion-electron system (eV)
  ---------------------------------------------------
  alpha Z        PSCENC =       258.64211694
  Ewald energy   TEWEN  =     -3839.49562645
  -Hartree energ DENC   =      -493.15469421
  -exchange      EXHF   =         0.00000000
  -V(xc)+E(xc)   XCENC  =        60.48178714
  PAW double counting   =      3719.95753222    -3632.28783310
  entropy T*S    EENTRO =        -0.06496270
  eigenvalues    EBANDS =       208.66245298
  atomic energy  EATOM  =      3704.33328956
  Solvation  Ediel_sol  =         0.00000000
  ---------------------------------------------------
  free energy    TOTEN  =       -12.92593763 eV

  energy without entropy =      -12.86097493  energy(sigma->0) =      -12.89345628


--------------------------------------------------------------------------------------------------------




--------------------------------------- Iteration      1(   7)  ---------------------------------------


    POTLOK:  cpu time    0.3162: real time    0.3307
    SETDIJ:  cpu time    0.0032: real time    0.0034
     EDDAV:  cpu time    5.0570: real time    5.3866
       DOS:  cpu time    0.0034: real time    0.0035
    CHARGE:  cpu time    0.0221: real time    0.0239
    MIXING:  cpu time    0.0042: real time    0.0043
    --------------------------------------------
      LOOP:  cpu time    5.4061: real time    5.7525

 eigenvalue-minimisations  :  2304
 total energy-change (2. order) : 0.5974394E-01  (-0.2849819E-01)
 number of electron      43.9999969 magnetization 
 augmentation part       16.1300519 magnetization 

 Broyden mixing:
  rms(total) = 0.48807E+00    rms(broyden)= 0.48807E+00
  rms(prec ) = 0.49059E+00
  weight for this iteration     100.00

 eigenvalues of (default mixing * dielectric matrix)
  average eigenvalue GAMMA=   1.9472
  1.2100  2.6844

 Free energy of the ion-electron system (eV)
  ---------------------------------------------------
  alpha Z        PSCENC =       258.64211694
  Ewald energy   TEWEN  =     -3839.49562645
  -Hartree energ DENC   =      -482.07562368
  -exchange      EXHF   =         0.00000000
  -V(xc)+E(xc)   XCENC  =        59.97971732
  PAW double counting   =      3936.34419721    -3851.90211073
  entropy T*S    EENTRO =        -0.06080963
  eigenvalues    EBANDS =       201.36865577
  atomic energy  EATOM  =      3704.33328956
  Solvation  Ediel_sol  =         0.00000000
  ---------------------------------------------------
  free energy    TOTEN  =       -12.86619369 eV

  energy without entropy =      -12.80538407  energy(sigma->0) =      -12.83578888


--------------------------------------------------------------------------------------------------------




--------------------------------------- Iteration      1(   8)  ---------------------------------------


    POTLOK:  cpu time    0.3392: real time    0.3572
    SETDIJ:  cpu time    0.0128: real time    0.0130
     EDDAV:  cpu time    3.1306: real time    3.3888
       DOS:  cpu time    0.0033: real time    0.0035
    CHARGE:  cpu time    0.0337: real time    0.0356
    MIXING:  cpu time    0.2468: real time    0.2488
    --------------------------------------------
      LOOP:  cpu time    3.7665: real time    4.0468

 eigenvalue-minimisations  :  1728
 total energy-change (2. order) : 0.7011497E-02  (-0.8465925E-03)
 number of electron      43.9999969 magnetization 
 augmentation part       16.1125968 magnetization 

 Broyden mixing:
  rms(total) = 0.40143E-01    rms(broyden)= 0.40143E-01
  rms(prec ) = 0.40425E-01
  weight for this iteration     100.00

 eigenvalues of (default mixing * dielectric matrix)
  average eigenvalue GAMMA=   1.5216
  2.5577  1.2191  0.7880

 Free energy of the ion-electron system (eV)
  ---------------------------------------------------
  alpha Z        PSCENC =       258.64211694
  Ewald energy   TEWEN  =     -3839.49562645
  -Hartree energ DENC   =      -480.54563931
  -exchange      EXHF   =         0.00000000
  -V(xc)+E(xc)   XCENC  =        59.89288344
  PAW double counting   =      4104.51141606    -4022.02051491
  entropy T*S    EENTRO =        -0.06127554
  eigenvalues    EBANDS =       201.88416801
  atomic energy  EATOM  =      3704.33328956
  Solvation  Ediel_sol  =         0.00000000
  ---------------------------------------------------
  free energy    TOTEN  =       -12.85918220 eV

  energy without entropy =      -12.79790666  energy(sigma->0) =      -12.82854443


--------------------------------------------------------------------------------------------------------




--------------------------------------- Iteration      1(   9)  ---------------------------------------


    POTLOK:  cpu time    0.4021: real time    0.4156
    SETDIJ:  cpu time    0.2180: real time    0.2199
     EDDAV:  cpu time    4.2147: real time    4.5106
       DOS:  cpu time    0.0037: real time    0.0039
    CHARGE:  cpu time    0.0119: real time    0.0130
    MIXING:  cpu time    0.2540: real time    0.2558
    --------------------------------------------
      LOOP:  cpu time    5.1045: real time    5.4189

 eigenvalue-minimisations  :  1984
 total energy-change (2. order) : 0.2858738E-04  (-0.3002194E-05)
 number of electron      43.9999969 magnetization 
 augmentation part       16.1121040 magnetization 

 Broyden mixing:
  rms(total) = 0.62447E-02    rms(broyden)= 0.62447E-02
  rms(prec ) = 0.69507E-02
  weight for this iteration     100.00

 eigenvalues of (default mixing * dielectric matrix)
  average eigenvalue GAMMA=   1.8764
  0.9789  1.2155  2.6555  2.6555

 Free energy of the ion-electron system (eV)
  ---------------------------------------------------
  alpha Z        PSCENC =       258.64211694
  Ewald energy   TEWEN  =     -3839.49562645
  -Hartree energ DENC   =      -480.75422567
  -exchange      EXHF   =         0.00000000
  -V(xc)+E(xc)   XCENC  =        59.90233886
  PAW double counting   =      4093.35252123    -4010.69411961
  entropy T*S    EENTRO =        -0.06130092
  eigenvalues    EBANDS =       201.91585244
  atomic energy  EATOM  =      3704.33328956
  Solvation  Ediel_sol  =         0.00000000
  ---------------------------------------------------
  free energy    TOTEN  =       -12.85915361 eV

  energy without entropy =      -12.79785269  energy(sigma->0) =      -12.82850315


--------------------------------------------------------------------------------------------------------




--------------------------------------- Iteration      1(  10)  ---------------------------------------


    POTLOK:  cpu time    0.2702: real time    0.2834
    SETDIJ:  cpu time    0.0031: real time    0.0032
     EDDAV:  cpu time    4.0133: real time    4.2874
       DOS:  cpu time    0.0122: real time    0.0124
    CHARGE:  cpu time    0.0168: real time    0.0183
    MIXING:  cpu time    0.0034: real time    0.0036
    --------------------------------------------
      LOOP:  cpu time    4.3191: real time    4.6083

 eigenvalue-minimisations  :  1856
 total energy-change (2. order) :-0.2789480E-04  (-0.1439028E-05)
 number of electron      43.9999969 magnetization 
 augmentation part       16.1125122 magnetization 

 Broyden mixing:
  rms(total) = 0.26600E-03    rms(broyden)= 0.26594E-03
  rms(prec ) = 0.37590E-03
  weight for this iteration     100.00

 eigenvalues of (default mixing * dielectric matrix)
  average eigenvalue GAMMA=   1.6929
  2.7386  2.5350  1.2125  0.9893  0.9893

 Free energy of the ion-electron system (eV)
  ---------------------------------------------------
  alpha Z        PSCENC =       258.64211694
  Ewald energy   TEWEN  =     -3839.49562645
  -Hartree energ DENC   =      -480.78515774
  -exchange      EXHF   =         0.00000000
  -V(xc)+E(xc)   XCENC  =        59.90219345
  PAW double counting   =      4093.13023648    -4010.39776334
  entropy T*S    EENTRO =        -0.06129628
  eigenvalues    EBANDS =       201.87282587
  atomic energy  EATOM  =      3704.33328956
  Solvation  Ediel_sol  =         0.00000000
  ---------------------------------------------------
  free energy    TOTEN  =       -12.85918150 eV

  energy without entropy =      -12.79788522  energy(sigma->0) =      -12.82853336


--------------------------------------------------------------------------------------------------------




--------------------------------------- Iteration      1(  11)  ---------------------------------------


    POTLOK:  cpu time    0.2668: real time    0.2796
    SETDIJ:  cpu time    0.0029: real time    0.0030
     EDDAV:  cpu time    5.6586: real time    5.9880
       DOS:  cpu time    0.0077: real time    0.0079
    --------------------------------------------
      LOOP:  cpu time    5.9359: real time    6.2784

 eigenvalue-minimisations  :  2240
 total energy-change (2. order) :-0.2039724E-06  (-0.1691909E-07)
 number of electron      43.9999969 magnetization 
 augmentation part       16.1125122 magnetization 

 Free energy of the ion-electron system (eV)
  ---------------------------------------------------
  alpha Z        PSCENC =       258.64211694
  Ewald energy   TEWEN  =     -3839.49562645
  -Hartree energ DENC   =      -480.78838706
  -exchange      EXHF   =         0.00000000
  -V(xc)+E(xc)   XCENC  =        59.90221121
  PAW double counting   =      4093.20268040    -4010.46749656
  entropy T*S    EENTRO =        -0.06129865
  eigenvalues    EBANDS =       201.87332891
  atomic energy  EATOM  =      3704.33328956
  Solvation  Ediel_sol  =         0.00000000
  ---------------------------------------------------
  free energy    TOTEN  =       -12.85918171 eV

  energy without entropy =      -12.79788306  energy(sigma->0) =      -12.82853238


--------------------------------------------------------------------------------------------------------




 average (electrostatic) potential at core
  the test charge radii are     1.2098
  (the norm of the test charge is              1.0000)
       1 -64.8420       2 -64.8420       3 -64.8420       4 -64.8420
 
 
 
 E-fermi :   8.5184     XC(G=0): -12.3863     alpha+bet :-13.1814


 k-point     1 :       0.0833    0.0833    0.0833
  band No.  band energies     occupation 
      1      -0.4773      2.00000
      2       2.1324      2.00000
      3       2.1324      2.00000
      4       2.1324      2.00000
      5       2.4101      2.00000
      6       2.4101      2.00000
      7       2.4101      2.00000
      8       4.1036      2.00000
      9       4.2455      2.00000
     10       4.2455      2.00000
     11       5.5162      2.00000
     12       5.5162      2.00000
     13       6.4042      2.00000
     14       6.4042      2.00000
     15       6.4042      2.00000
     16       6.4327      2.00000
     17       6.4327      2.00000
     18       6.4327      2.00000
     19       6.8435      2.00000
     20       6.8435      2.00000
     21       6.8435      2.00000
     22       9.7304      0.00001
     23       9.7304      0.00001
     24       9.7304      0.00001
     25      14.4841      0.00000
     26      14.4841      0.00000
     27      14.4841      0.00000
     28      17.9672      0.00000
     29      17.9672      0.00000
     30      17.9672      0.00000
     31      18.8717      0.00000
     32      18.8717      0.00000
     33      18.8717      0.00000
     34      23.3881      0.00000
     35      25.4225      0.00000
     36      25.6623      0.00000
     37      25.6623      0.00000
     38      25.6623      0.00000
     39      27.0838      0.00000
     40      27.0838      0.00000
     41      27.8538      0.00000
     42      27.8538      0.00000
     43      27.8538      0.00000
     44      32.2227      0.00000
     45      34.1120      0.00000
     46      34.4322      0.00000
     47      34.4322      0.00000
     48      35.4741      0.00000
     49      35.4741      0.00000
     50      35.4741      0.00000
     51      37.5161      0.00000
     52      37.5161      0.00000
     53      38.8994      0.00000
     54      39.2479      0.00000
     55      39.2479      0.00000
     56      39.2479      0.00000
     57      41.2914      0.00000
     58      41.2914      0.00000
     59      41.2914      0.00000
     60      41.6128      0.00000
     61      41.6128      0.00000
     62      41.6128      0.00000
     63      43.6314      0.00000
     64      43.6314      0.00000

 k-point     2 :       0.2500    0.0833    0.0833
  band No.  band energies     occupation 
      1       0.1099      2.00000
      2       2.2793      2.00000
      3       2.4599      2.00000
      4       2.4599      2.00000
      5       2.6157      2.00000
      6       2.7639      2.00000
      7       2.7639      2.00000
      8       3.8648      2.00000
      9       4.4617      2.00000
     10       4.4691      2.00000
     11       5.2644      2.00000
     12       5.3052      2.00000
     13       5.3052      2.00000
     14       5.6752      2.00000
     15       5.6760      2.00000
     16       6.0601      2.00000
     17       6.0816      2.00000
     18       6.0816      2.00000
     19       6.6223      2.00000
     20       6.8028      2.00000
     21       6.8028      2.00000
     22       7.5650      1.99986
     23      11.0682      0.00000
     24      11.0682      0.00000
     25      14.0103      0.00000
     26      14.0103      0.00000
     27      16.9930      0.00000
     28      16.9930      0.00000
     29      17.5112      0.00000
     30      18.9239      0.00000
     31      18.9239      0.00000
     32      19.4588      0.00000
     33      19.9956      0.00000
     34      23.4626      0.00000
     35      24.2631      0.00000
     36      25.3833      0.00000
     37      26.2796      0.00000
     38      26.9724      0.00000
     39      26.9724      0.00000
     40      27.3053      0.00000
     41      27.4639      0.00000
     42      29.2951      0.00000
     43      29.2951      0.00000
     44      30.7858      0.00000
     45      32.6799      0.00000
     46      33.4446      0.00000
     47      34.1557      0.00000
     48      34.1557      0.00000
     49      35.6918      0.00000
     50      35.7430      0.00000
     51      36.1943      0.00000
     52      37.1499      0.00000
     53      38.0656      0.00000
     54      38.0656      0.00000
     55      38.7767      0.00000
     56      40.3151      0.00000
     57      40.3151      0.00000
     58      40.4590      0.00000
     59      40.9198      0.00000
     60      41.0299      0.00000
     61      41.2768      0.00000
     62      41.2768      0.00000
     63      42.0800      0.00000
     64      43.2304      0.00000

 k-point     3 :       0.4167    0.0833    0.0833
  band No.  band energies     occupation 
      1       1.1580      2.00000
      2       2.1365      2.00000
      3       2.9772      2.00000
      4       2.9772      2.00000
      5       2.9850      2.00000
      6       3.3460      2.00000
      7       3.3460      2.00000
      8       3.4397      2.00000
      9       4.2000      2.00000
     10       4.2000      2.00000
     11       4.6066      2.00000
     12       4.7234      2.00000
     13       4.8975      2.00000
     14       5.2787      2.00000
     15       5.4729      2.00000
     16       5.5535      2.00000
     17       5.5535      2.00000
     18       5.9593      2.00000
     19       6.0933      2.00000
     20       6.3008      2.00000
     21       6.7871      2.00000
     22       6.7871      2.00000
     23      12.1840      0.00000
     24      12.1840      0.00000
     25      13.8735      0.00000
     26      13.8735      0.00000
     27      16.1155      0.00000
     28      16.1155      0.00000
     29      18.5187      0.00000
     30      18.5187      0.00000
     31      20.0817      0.00000
     32      21.9491      0.00000
     33      22.0338      0.00000
     34      22.6546      0.00000
     35      24.2925      0.00000
     36      24.7425      0.00000
     37      25.2315      0.00000
     38      26.1013      0.00000
     39      26.8864      0.00000
     40      27.7968      0.00000
     41      28.7963      0.00000
     42      28.7963      0.00000
     43      31.2185      0.00000
     44      31.2185      0.00000
     45      32.8331      0.00000
     46      32.8331      0.00000
     47      32.9272      0.00000
     48      33.0857      0.00000
     49      34.4670      0.00000
     50      34.7497      0.00000
     51      36.5318      0.00000
     52      36.5318      0.00000
     53      36.6934      0.00000
     54      38.4144      0.00000
     55      38.4144      0.00000
     56      38.5601      0.00000
     57      38.8434      0.00000
     58      40.0823      0.00000
     59      40.4689      0.00000
     60      40.4689      0.00000
     61      40.5620      0.00000
     62      42.4642      0.00000
     63      42.6866      0.00000
     64      43.5203      0.00000

 k-point     4 :       0.2500    0.2500    0.0833
  band No.  band energies     occupation 
      1       0.6349      2.00000
      2       2.5766      2.00000
      3       2.6001      2.00000
      4       2.6001      2.00000
      5       2.9674      2.00000
      6       2.9674      2.00000
      7       3.1756      2.00000
      8       3.8377      2.00000
      9       4.4804      2.00000
     10       4.5317      2.00000
     11       4.6498      2.00000
     12       4.6498      2.00000
     13       4.9104      2.00000
     14       5.2698      2.00000
     15       5.7199      2.00000
     16       5.8260      2.00000
     17       5.8426      2.00000
     18       5.8426      2.00000
     19       6.5418      2.00000
     20       6.5418      2.00000
     21       6.5758      2.00000
     22       8.7839      0.13132
     23       8.7839      0.13132
     24      11.8678      0.00000
     25      12.9330      0.00000
     26      15.9637      0.00000
     27      15.9637      0.00000
     28      16.4800      0.00000
     29      19.0264      0.00000
     30      19.0264      0.00000
     31      20.1322      0.00000
     32      20.1322      0.00000
     33      20.9375      0.00000
     34      21.5807      0.00000
     35      23.8752      0.00000
     36      25.5671      0.00000
     37      26.4055      0.00000
     38      26.6254      0.00000
     39      26.6254      0.00000
     40      28.5958      0.00000
     41      29.1711      0.00000
     42      29.1711      0.00000
     43      29.3978      0.00000
     44      31.7508      0.00000
     45      32.0089      0.00000
     46      33.2832      0.00000
     47      33.9049      0.00000
     48      33.9049      0.00000
     49      34.2296      0.00000
     50      35.3678      0.00000
     51      35.5847      0.00000
     52      36.8288      0.00000
     53      36.8288      0.00000
     54      37.4950      0.00000
     55      38.9346      0.00000
     56      38.9346      0.00000
     57      39.6372      0.00000
     58      40.7811      0.00000
     59      41.3441      0.00000
     60      41.3441      0.00000
     61      42.1239      0.00000
     62      42.2938      0.00000
     63      42.5141      0.00000
     64      42.6068      0.00000

 k-point     5 :       0.4167    0.2500    0.0833
  band No.  band energies     occupation 
      1       1.5581      2.00000
      2       2.4477      2.00000
      3       2.9531      2.00000
      4       3.1232      2.00000
      5       3.2902      2.00000
      6       3.4279      2.00000
      7       3.5236      2.00000
      8       3.6038      2.00000
      9       3.8892      2.00000
     10       4.1504      2.00000
     11       4.2460      2.00000
     12       4.3650      2.00000
     13       4.8169      2.00000
     14       5.2930      2.00000
     15       5.3777      2.00000
     16       5.4050      2.00000
     17       5.4954      2.00000
     18       6.0463      2.00000
     19       6.3471      2.00000
     20       6.4078      2.00000
     21       6.4143      2.00000
     22       7.1866      2.00000
     23      10.0261      0.00000
     24      11.1628      0.00000
     25      13.5378      0.00000
     26      14.6182      0.00000
     27      16.8150      0.00000
     28      17.8016      0.00000
     29      17.8828      0.00000
     30      19.6791      0.00000
     31      20.4808      0.00000
     32      21.0616      0.00000
     33      21.1876      0.00000
     34      22.8076      0.00000
     35      22.9207      0.00000
     36      25.4643      0.00000
     37      26.4346      0.00000
     38      26.5181      0.00000
     39      27.1289      0.00000
     40      27.7530      0.00000
     41      29.1506      0.00000
     42      29.9266      0.00000
     43      30.4897      0.00000
     44      31.4368      0.00000
     45      32.1018      0.00000
     46      32.9368      0.00000
     47      34.0062      0.00000
     48      34.1733      0.00000
     49      34.5316      0.00000
     50      34.9654      0.00000
     51      35.3475      0.00000
     52      35.5216      0.00000
     53      36.2104      0.00000
     54      37.3110      0.00000
     55      37.5702      0.00000
     56      37.7959      0.00000
     57      39.6999      0.00000
     58      40.1685      0.00000
     59      40.8574      0.00000
     60      41.1564      0.00000
     61      41.3881      0.00000
     62      41.8398      0.00000
     63      42.9222      0.00000
     64      43.5541      0.00000

 k-point     6 :       0.4167    0.4167    0.0833
  band No.  band energies     occupation 
      1       2.1912      2.00000
      2       2.7986      2.00000
      3       2.7986      2.00000
      4       2.9127      2.00000
      5       3.7376      2.00000
      6       3.7691      2.00000
      7       3.7691      2.00000
      8       3.7756      2.00000
      9       3.8866      2.00000
     10       3.8866      2.00000
     11       4.2385      2.00000
     12       4.2554      2.00000
     13       4.7815      2.00000
     14       5.0622      2.00000
     15       5.0940      2.00000
     16       5.0940      2.00000
     17       5.4029      2.00000
     18       5.8738      2.00000
     19       5.8738      2.00000
     20       6.0143      2.00000
     21       7.1687      2.00000
     22       8.2937      1.80883
     23       8.2937      1.80883
     24       9.5399      0.00007
     25      14.5527      0.00000
     26      15.9334      0.00000
     27      15.9334      0.00000
     28      17.6273      0.00000
     29      17.8576      0.00000
     30      19.3902      0.00000
     31      19.3902      0.00000
     32      21.0781      0.00000
     33      23.4579      0.00000
     34      23.4579      0.00000
     35      24.2723      0.00000
     36      24.7315      0.00000
     37      25.1173      0.00000
     38      26.9890      0.00000
     39      26.9890      0.00000
     40      28.1738      0.00000
     41      28.8018      0.00000
     42      29.9802      0.00000
     43      29.9802      0.00000
     44      31.7322      0.00000
     45      32.9754      0.00000
     46      33.5588      0.00000
     47      34.0644      0.00000
     48      34.0644      0.00000
     49      34.8938      0.00000
     50      34.9514      0.00000
     51      34.9514      0.00000
     52      36.1798      0.00000
     53      36.2694      0.00000
     54      37.6128      0.00000
     55      37.6128      0.00000
     56      38.2594      0.00000
     57      39.0004      0.00000
     58      40.0996      0.00000
     59      40.3563      0.00000
     60      40.3563      0.00000
     61      40.8764      0.00000
     62      41.3045      0.00000
     63      41.3045      0.00000
     64      41.9870      0.00000

 k-point     7 :       0.2500    0.2500    0.2500
  band No.  band energies     occupation 
      1       1.0163      2.00000
      2       2.5651      2.00000
      3       2.5651      2.00000
      4       2.5651      2.00000
      5       3.4152      2.00000
      6       3.4152      2.00000
      7       3.4152      2.00000
      8       4.0695      2.00000
      9       4.4282      2.00000
     10       4.4282      2.00000
     11       4.5105      2.00000
     12       4.5105      2.00000
     13       4.5105      2.00000
     14       5.2512      2.00000
     15       5.2512      2.00000
     16       5.2512      2.00000
     17       5.7012      2.00000
     18       5.7012      2.00000
     19       6.7140      2.00000
     20       6.7140      2.00000
     21       6.7140      2.00000
     22       9.5332      0.00008
     23       9.5332      0.00008
     24       9.5332      0.00008
     25      13.8000      0.00000
     26      13.8000      0.00000
     27      13.8000      0.00000
     28      19.3834      0.00000
     29      19.6851      0.00000
     30      19.6851      0.00000
     31      19.6851      0.00000
     32      21.6963      0.00000
     33      21.6963      0.00000
     34      21.6963      0.00000
     35      24.1089      0.00000
     36      25.0322      0.00000
     37      25.0322      0.00000
     38      25.0322      0.00000
     39      27.8769      0.00000
     40      27.8769      0.00000
     41      29.8952      0.00000
     42      31.1443      0.00000
     43      31.1443      0.00000
     44      31.9379      0.00000
     45      31.9379      0.00000
     46      31.9379      0.00000
     47      33.9100      0.00000
     48      33.9100      0.00000
     49      33.9100      0.00000
     50      34.9317      0.00000
     51      34.9317      0.00000
     52      34.9317      0.00000
     53      38.4925      0.00000
     54      38.4925      0.00000
     55      38.6571      0.00000
     56      38.6571      0.00000
     57      38.6571      0.00000
     58      38.9293      0.00000
     59      42.0692      0.00000
     60      42.0692      0.00000
     61      42.0692      0.00000
     62      42.3361      0.00000
     63      42.3361      0.00000
     64      42.3361      0.00000

 k-point     8 :       0.4167    0.2500    0.2500
  band No.  band energies     occupation 
      1       1.6474      2.00000
      2       2.2668      2.00000
      3       2.6741      2.00000
      4       2.6741      2.00000
      5       3.6029      2.00000
      6       3.6029      2.00000
      7       3.8729      2.00000
      8       4.1572      2.00000
      9       4.1948      2.00000
     10       4.3189      2.00000
     11       4.4994      2.00000
     12       4.5209      2.00000
     13       4.5209      2.00000
     14       4.7905      2.00000
     15       4.9956      2.00000
     16       4.9956      2.00000
     17       6.0379      2.00000
     18       6.2068      2.00000
     19       6.5548      2.00000
     20       6.5548      2.00000
     21       6.5912      2.00000
     22       7.4118      1.99997
     23      10.6452      0.00000
     24      10.6452      0.00000
     25      12.0173      0.00000
     26      12.0173      0.00000
     27      15.4137      0.00000
     28      17.3129      0.00000
     29      20.1677      0.00000
     30      20.1677      0.00000
     31      21.5972      0.00000
     32      21.5972      0.00000
     33      22.9026      0.00000
     34      23.2034      0.00000
     35      23.7976      0.00000
     36      24.7813      0.00000
     37      25.3626      0.00000
     38      25.6759      0.00000
     39      25.6759      0.00000
     40      27.0352      0.00000
     41      30.7234      0.00000
     42      31.9065      0.00000
     43      32.1689      0.00000
     44      32.1689      0.00000
     45      32.1842      0.00000
     46      32.5174      0.00000
     47      33.0322      0.00000
     48      33.8310      0.00000
     49      34.8387      0.00000
[...]
  --------------------------------------------------------------------------------
  x    -0.00000     0.00000    -0.00000     0.00000    -0.00000     0.00000
  y     0.00000     0.00000    -0.00000    -0.00000    -0.00000     0.00000
  z    -0.00000    -0.00000     0.00000     0.00000    -0.00000    -0.00000

 INTERNAL STRAIN TENSOR FOR ION    4 for displacements in x,y,z  (eV/Angst):
          X           Y           Z          XY          YZ          ZX
  --------------------------------------------------------------------------------
  x     0.00000    -0.00000     0.00000     0.00000    -0.00000     0.00000
  y    -0.00000    -0.00000     0.00000    -0.00000     0.00000     0.00000
  z     0.00000    -0.00000     0.00000     0.00000     0.00000     0.00000
 
 INTERNAL STRAIN TENSORS FROM DISPLACED ATOMS
 ============================================

 INTERNAL STRAIN TENSOR FOR ION    1 for displacements in x,y,z  (eV/Angst):
          X           Y           Z          XY          YZ          ZX
  --------------------------------------------------------------------------------
  x     0.00000     0.00000     0.00000     0.00000     0.00000     0.00000
  y     0.00000     0.00000     0.00000     0.00000     0.00000     0.00000
  z     0.00000     0.00000     0.00000     0.00000     0.00000     0.00000

 INTERNAL STRAIN TENSOR FOR ION    2 for displacements in x,y,z  (eV/Angst):
          X           Y           Z          XY          YZ          ZX
  --------------------------------------------------------------------------------
  x     0.00000     0.00000     0.00000     0.00000     0.00000     0.00000
  y     0.00000     0.00000     0.00000     0.00000     0.00000     0.00000
  z     0.00000     0.00000     0.00000     0.00000     0.00000     0.00000

 INTERNAL STRAIN TENSOR FOR ION    3 for displacements in x,y,z  (eV/Angst):
          X           Y           Z          XY          YZ          ZX
  --------------------------------------------------------------------------------
  x     0.00000     0.00000     0.00000     0.00000     0.00000     0.00000
  y     0.00000     0.00000     0.00000     0.00000     0.00000     0.00000
  z     0.00000     0.00000     0.00000     0.00000     0.00000     0.00000

 INTERNAL STRAIN TENSOR FOR ION    4 for displacements in x,y,z  (eV/Angst):
          X           Y           Z          XY          YZ          ZX
  --------------------------------------------------------------------------------
  x     0.00000     0.00000     0.00000     0.00000     0.00000     0.00000
  y     0.00000     0.00000     0.00000     0.00000     0.00000     0.00000
  z     0.00000     0.00000     0.00000     0.00000     0.00000     0.00000


--------------------------------------------------------------------------------------------------------


 
 Eigenvectors and eigenvalues of the dynamical matrix
 ----------------------------------------------------
 
 
   1 f  =    3.926895 THz    24.673411 2PiTHz  130.987125 cm-1    16.240339 meV
             X         Y         Z           dx          dy          dz
      0.000000  0.000000  0.000000     0.115441    0.486491   -0.000000  
      0.000000  2.080624  2.080624     0.115441   -0.486491    0.000000  
      2.080624  0.000000  2.080624    -0.115441    0.486491    0.000000  
      2.080624  2.080624  0.000000    -0.115441   -0.486491    0.000000  
 
   2 f  =    3.926895 THz    24.673411 2PiTHz  130.987125 cm-1    16.240339 meV
             X         Y         Z           dx          dy          dz
      0.000000  0.000000  0.000000     0.486491   -0.115441    0.000000  
      0.000000  2.080624  2.080624     0.486491    0.115441    0.000000  
      2.080624  0.000000  2.080624    -0.486491   -0.115441   -0.000000  
      2.080624  2.080624  0.000000    -0.486491    0.115441   -0.000000  
 
   3 f  =    3.926895 THz    24.673411 2PiTHz  130.987125 cm-1    16.240339 meV
             X         Y         Z           dx          dy          dz
      0.000000  0.000000  0.000000    -0.000000   -0.000000   -0.500000  
      0.000000  2.080624  2.080624    -0.000000    0.000000    0.500000  
      2.080624  0.000000  2.080624     0.000000   -0.000000    0.500000  
      2.080624  2.080624  0.000000     0.000000    0.000000   -0.500000  
 
   4 f  =    2.262775 THz    14.217433 2PiTHz   75.478037 cm-1     9.358087 meV
             X         Y         Z           dx          dy          dz
      0.000000  0.000000  0.000000     0.394060    0.035640    0.066699  
      0.000000  2.080624  2.080624    -0.394060    0.420619   -0.258574  
      2.080624  0.000000  2.080624    -0.308572   -0.035640    0.258574  
      2.080624  2.080624  0.000000     0.308572   -0.420619   -0.066699  
 
   5 f  =    2.262775 THz    14.217433 2PiTHz   75.478037 cm-1     9.358087 meV
             X         Y         Z           dx          dy          dz
      0.000000  0.000000  0.000000    -0.057319    0.052636    0.635613  
      0.000000  2.080624  2.080624     0.057319    0.136613   -0.012182  
      2.080624  0.000000  2.080624     0.266699   -0.052636    0.012182  
      2.080624  2.080624  0.000000    -0.266699   -0.136613   -0.635613  
 
   6 f  =    2.262775 THz    14.217433 2PiTHz   75.478037 cm-1     9.358087 meV
             X         Y         Z           dx          dy          dz
      0.000000  0.000000  0.000000     0.553091    0.196641    0.000000  
      0.000000  2.080624  2.080624    -0.553091   -0.297652    0.102724  
      2.080624  0.000000  2.080624     0.237221   -0.196641   -0.102724  
      2.080624  2.080624  0.000000    -0.237221    0.297652    0.000000  
 
   7 f  =    2.262775 THz    14.217433 2PiTHz   75.478037 cm-1     9.358087 meV
             X         Y         Z           dx          dy          dz
      0.000000  0.000000  0.000000     0.114836   -0.559463   -0.042283  
      0.000000  2.080624  2.080624    -0.114836   -0.064492   -0.321302  
      2.080624  0.000000  2.080624     0.254226    0.559463    0.321302  
      2.080624  2.080624  0.000000    -0.254226    0.064492    0.042283  
 
   8 f  =    2.262775 THz    14.217433 2PiTHz   75.478037 cm-1     9.358087 meV
             X         Y         Z           dx          dy          dz
      0.000000  0.000000  0.000000    -0.076756    0.258286   -0.293766  
      0.000000  2.080624  2.080624     0.076756    0.337826   -0.148016  
      2.080624  0.000000  2.080624     0.452839   -0.258286    0.148016  
      2.080624  2.080624  0.000000    -0.452839   -0.337826    0.293766  
 
   9 f  =    2.262775 THz    14.217433 2PiTHz   75.478037 cm-1     9.358087 meV
             X         Y         Z           dx          dy          dz
      0.000000  0.000000  0.000000     0.128228   -0.278533   -0.058832  
      0.000000  2.080624  2.080624    -0.128228    0.312305    0.545247  
      2.080624  0.000000  2.080624     0.087672    0.278533   -0.545247  
      2.080624  2.080624  0.000000    -0.087672   -0.312305    0.058832  
 
  10 f/i=    0.000000 THz     0.000000 2PiTHz    0.000002 cm-1     0.000000 meV
             X         Y         Z           dx          dy          dz
      0.000000  0.000000  0.000000    -0.373399    0.327896    0.055297  
      0.000000  2.080624  2.080624    -0.373399    0.327896    0.055297  
      2.080624  0.000000  2.080624    -0.373399    0.327896    0.055297  
      2.080624  2.080624  0.000000    -0.373399    0.327896    0.055297  
 
  11 f/i=    0.000000 THz     0.000000 2PiTHz    0.000002 cm-1     0.000000 meV
             X         Y         Z           dx          dy          dz
      0.000000  0.000000  0.000000    -0.329698   -0.375889    0.002599  
      0.000000  2.080624  2.080624    -0.329698   -0.375889    0.002599  
      2.080624  0.000000  2.080624    -0.329698   -0.375889    0.002599  
      2.080624  2.080624  0.000000    -0.329698   -0.375889    0.002599  
 
  12 f/i=    0.000000 THz     0.000000 2PiTHz    0.000003 cm-1     0.000000 meV
             X         Y         Z           dx          dy          dz
      0.000000  0.000000  0.000000     0.043275   -0.034522    0.496926  
      0.000000  2.080624  2.080624     0.043275   -0.034522    0.496926  
      2.080624  0.000000  2.080624     0.043275   -0.034522    0.496926  
      2.080624  2.080624  0.000000     0.043275   -0.034522    0.496926  
 


--------------------------------------------------------------------------------------------------------



 ELASTIC MODULI CONTR FROM IONIC RELAXATION (kBar)
 Direction    XX          YY          ZZ          XY          YZ          ZX
 --------------------------------------------------------------------------------
 XX           0.0000      0.0000      0.0000      0.0000      0.0000      0.0000
 YY           0.0000      0.0000      0.0000      0.0000      0.0000      0.0000
 ZZ           0.0000      0.0000      0.0000      0.0000      0.0000      0.0000
 XY           0.0000      0.0000      0.0000     -0.0000      0.0000      0.0000
 YZ           0.0000      0.0000      0.0000      0.0000      0.0000     -0.0000
 ZX           0.0000      0.0000      0.0000      0.0000     -0.0000     -0.0000
 --------------------------------------------------------------------------------


 TOTAL ELASTIC MODULI (kBar)
 Direction    XX          YY          ZZ          XY          YZ          ZX
 --------------------------------------------------------------------------------
 XX        1432.1553   1316.2972   1316.2972      0.0000      0.0000     -0.0000
 YY        1316.2972   1432.1553   1316.2972     -0.0000      0.0000     -0.0000
 ZZ        1316.2972   1316.2972   1432.1553      0.0000      0.0000     -0.0000
 XY           0.0000     -0.0000      0.0000     81.3397      0.0000      0.0000
 YZ           0.0000      0.0000      0.0000      0.0000     81.3397     -0.0000
 ZX          -0.0000     -0.0000     -0.0000      0.0000     -0.0000     81.3397
 --------------------------------------------------------------------------------



--------------------------------------------------------------------------------------------------------


  LATTYP: Found a simple cubic cell.
 ALAT       =     4.1612474485
  
  Lattice vectors:
  
 A1 = (   4.1612474485,   0.0000000000,   0.0000000000)
 A2 = (   0.0000000000,   4.1612474485,   0.0000000000)
 A3 = (   0.0000000000,   0.0000000000,   4.1612474485)


Analysis of symmetry for initial positions (statically):
=====================================================================
 Subroutine PRICEL returns following result:
 
  LATTYP: Found a face centered cubic cell.
 ALAT       =     4.1612474485
  
  Lattice vectors:
  
 A1 = (   2.0806237243,   2.0806237243,   0.0000000000)
 A2 = (   2.0806237243,   0.0000000000,  -2.0806237243)
 A3 = (   0.0000000000,   2.0806237243,  -2.0806237243)
 
   4 primitive cells build up your supercell.
 

 Routine SETGRP: Setting up the symmetry group for a 
 simple cubic supercell.


 Subroutine GETGRP returns: Found 48 space group operations
 (whereof 48 operations were pure point group operations)
 out of a pool of 48 trial point group operations.


The static configuration has the point symmetry O_h .


Analysis of symmetry for dynamics (positions and initial velocities):
=====================================================================
 Subroutine PRICEL returns following result:
 
  LATTYP: Found a face centered cubic cell.
 ALAT       =     4.1612474485
  
  Lattice vectors:
  
 A1 = (   2.0806237243,   2.0806237243,   0.0000000000)
 A2 = (   2.0806237243,   0.0000000000,  -2.0806237243)
 A3 = (   0.0000000000,   2.0806237243,  -2.0806237243)
 
   4 primitive cells build up your supercell.
 

 Routine SETGRP: Setting up the symmetry group for a 
 simple cubic supercell.


 Subroutine GETGRP returns: Found 48 space group operations
 (whereof 48 operations were pure point group operations)
 out of a pool of 48 trial point group operations.


The dynamic configuration has the point symmetry O_h .


 Subroutine INISYM returns: Found 48 space group operations
 (whereof 48 operations are pure point group operations),
 and found     4 'primitive' translations

 
 KPOINTS: pymatgen with grid density = 882 / numbe

Automatic generation of k-mesh.
Space group operators:
 irot       det(A)        alpha          n_x          n_y          n_z        tau_x        tau_y        tau_z
    1     1.000000     0.000000     1.000000     0.000000     0.000000     0.000000     0.000000     0.000000
    2    -1.000000     0.000000     1.000000     0.000000     0.000000     0.000000     0.000000     0.000000
    3     1.000000   120.000000    -0.577350    -0.577350    -0.577350     0.000000     0.000000     0.000000
    4    -1.000000   120.000000    -0.577350    -0.577350    -0.577350     0.000000     0.000000     0.000000
    5     1.000000   120.000000     0.577350     0.577350     0.577350     0.000000     0.000000     0.000000
    6    -1.000000   120.000000     0.577350     0.577350     0.577350     0.000000     0.000000     0.000000
    7     1.000000    90.000000     0.000000     0.000000    -1.000000     0.000000     0.000000     0.000000
    8    -1.000000    90.000000     0.000000     0.000000    -1.000000     0.000000     0.000000     0.000000
    9     1.000000   180.000000     0.000000     0.707107     0.707107     0.000000     0.000000     0.000000
   10    -1.000000   180.000000     0.000000     0.707107     0.707107     0.000000     0.000000     0.000000
   11     1.000000    90.000000     0.000000     1.000000     0.000000     0.000000     0.000000     0.000000
   12    -1.000000    90.000000     0.000000     1.000000     0.000000     0.000000     0.000000     0.000000
   13     1.000000   180.000000     0.000000     0.000000     1.000000     0.000000     0.000000     0.000000
   14    -1.000000   180.000000     0.000000     0.000000     1.000000     0.000000     0.000000     0.000000
   15     1.000000   120.000000    -0.577350     0.577350     0.577350     0.000000     0.000000     0.000000
   16    -1.000000   120.000000    -0.577350     0.577350     0.577350     0.000000     0.000000     0.000000
   17     1.000000   120.000000    -0.577350     0.577350    -0.577350     0.000000     0.000000     0.000000
   18    -1.000000   120.000000    -0.577350     0.577350    -0.577350     0.000000     0.000000     0.000000
   19     1.000000    90.000000     0.000000     0.000000     1.000000     0.000000     0.000000     0.000000
   20    -1.000000    90.000000     0.000000     0.000000     1.000000     0.000000     0.000000     0.000000
   21     1.000000    90.000000    -1.000000     0.000000     0.000000     0.000000     0.000000     0.000000
   22    -1.000000    90.000000    -1.000000     0.000000     0.000000     0.000000     0.000000     0.000000
   23     1.000000   180.000000     0.707107     0.000000     0.707107     0.000000     0.000000     0.000000
   24    -1.000000   180.000000     0.707107     0.000000     0.707107     0.000000     0.000000     0.000000
   25     1.000000   120.000000     0.577350    -0.577350     0.577350     0.000000     0.000000     0.000000
   26    -1.000000   120.000000     0.577350    -0.577350     0.577350     0.000000     0.000000     0.000000
   27     1.000000   120.000000    -0.577350    -0.577350     0.577350     0.000000     0.000000     0.000000
   28    -1.000000   120.000000    -0.577350    -0.577350     0.577350     0.000000     0.000000     0.000000
   29     1.000000   180.000000     1.000000     0.000000     0.000000     0.000000     0.000000     0.000000
   30    -1.000000   180.000000     1.000000     0.000000     0.000000     0.000000     0.000000     0.000000
   31     1.000000    90.000000     0.000000    -1.000000     0.000000     0.000000     0.000000     0.000000
   32    -1.000000    90.000000     0.000000    -1.000000     0.000000     0.000000     0.000000     0.000000
   33     1.000000   180.000000     0.707107     0.707107     0.000000     0.000000     0.000000     0.000000
   34    -1.000000   180.000000     0.707107     0.707107     0.000000     0.000000     0.000000     0.000000
   35     1.000000    90.000000     1.000000     0.000000     0.000000     0.000000     0.000000     0.000000
   36    -1.000000    90.000000     1.000000     0.000000     0.000000     0.000000     0.000000     0.000000
   37     1.000000   120.000000     0.577350    -0.577350    -0.577350     0.000000     0.000000     0.000000
   38    -1.000000   120.000000     0.577350    -0.577350    -0.577350     0.000000     0.000000     0.000000
   39     1.000000   180.000000     0.000000     1.000000     0.000000     0.000000     0.000000     0.000000
   40    -1.000000   180.000000     0.000000     1.000000     0.000000     0.000000     0.000000     0.000000
   41     1.000000   120.000000     0.577350     0.577350    -0.577350     0.000000     0.000000     0.000000
   42    -1.000000   120.000000     0.577350     0.577350    -0.577350     0.000000     0.000000     0.000000
   43     1.000000   180.000000     0.000000    -0.707107     0.707107     0.000000     0.000000     0.000000
   44    -1.000000   180.000000     0.000000    -0.707107     0.707107     0.000000     0.000000     0.000000
   45     1.000000   180.000000     0.707107    -0.707107     0.000000     0.000000     0.000000     0.000000
   46    -1.000000   180.000000     0.707107    -0.707107     0.000000     0.000000     0.000000     0.000000
   47     1.000000   180.000000     0.707107     0.000000    -0.707107     0.000000     0.000000     0.000000
   48    -1.000000   180.000000     0.707107     0.000000    -0.707107     0.000000     0.000000     0.000000
 
 Subroutine IBZKPT returns following result:
 ===========================================
 
 Found     10 irreducible k-points:
 
 Following reciprocal coordinates:
            Coordinates               Weight
  0.083333  0.083333  0.083333      8.000000
  0.250000  0.083333  0.083333     24.000000
  0.416667  0.083333  0.083333     24.000000
  0.250000  0.250000  0.083333     24.000000
  0.416667  0.250000  0.083333     48.000000
  0.416667  0.416667  0.083333     24.000000
  0.250000  0.250000  0.250000      8.000000
  0.416667  0.250000  0.250000     24.000000
  0.416667  0.416667  0.250000     24.000000
  0.416667  0.416667  0.416667      8.000000
 
 Following cartesian coordinates:
            Coordinates               Weight
  0.020026  0.020026  0.020026      8.000000
  0.060078  0.020026  0.020026     24.000000
  0.100130  0.020026  0.020026     24.000000
  0.060078  0.060078  0.020026     24.000000
  0.100130  0.060078  0.020026     48.000000
  0.100130  0.100130  0.020026     24.000000
  0.060078  0.060078  0.060078      8.000000
  0.100130  0.060078  0.060078     24.000000
  0.100130  0.100130  0.060078     24.000000
  0.100130  0.100130  0.100130      8.000000
 
 writing wavefunctions
     LOOP+:  cpu time   28.5973: real time   30.8357
    4ORBIT:  cpu time    0.0000: real time    0.0000

 total amount of memory used by VASP MPI-rank0    34210. kBytes
=======================================================================

   base      :      30000. kBytes
   nonl-proj :       2983. kBytes
   fftplans  :        153. kBytes
   grid      :        675. kBytes
   one-center:         62. kBytes
   wavefun   :        337. kBytes
 
  
  
 General timing and accounting informations for this job:
 ========================================================
  
                  Total CPU time used (sec):     1376.655
                            User time (sec):      688.487
                          System time (sec):      688.168
                         Elapsed time (sec):     1483.546
  
                   Maximum memory used (kb):      489256.
                   Average memory used (kb):           0.
  
                          Minor page faults:       430945
                          Major page faults:          117
                 Voluntary context switches:         2512
