   9   9   1   0
  0.2201687E+02  0.3531900E-09  0.3531900E-09  0.1834216E-08  0.5000000E-15
  1.000000000000000E-004
  CAR 
 unknown system                          
     13.49606411    -42.38456189  301      1.20378161      1.00000000
    -42.385  0.0000E+00  0.0000E+00  0.0000E+00  0.0000E+00
    -42.198  0.0000E+00  0.0000E+00  0.0000E+00  0.0000E+00
    -42.012  0.0000E+00  0.0000E+00  0.0000E+00  0.0000E+00
    -41.826  0.0000E+00  0.0000E+00  0.0000E+00  0.0000E+00
    -41.639  0.0000E+00  0.0000E+00  0.0000E+00  0.0000E+00
    -41.453  0.0000E+00  0.0000E+00  0.0000E+00  0.0000E+00
    -41.267  0.0000E+00  0.0000E+00  0.0000E+00  0.0000E+00
    -41.081  0.0000E+00  0.0000E+00  0.0000E+00  0.0000E+00
    -40.894  0.0000E+00  0.0000E+00  0.0000E+00  0.0000E+00
    -40.708  0.0000E+00  0.0000E+00  0.0000E+00  0.0000E+00
    -40.522  0.0000E+00  0.0000E+00  0.0000E+00  0.0000E+00
    -40.336  0.2373E-02  0.2368E-02  0.4420E-03  0.4411E-03
    -40.149  0.9588E-01  0.9569E-01  0.1830E-01  0.1827E-01
    -39.963  0.3667E+01  0.3661E+01  0.7014E+00  0.7001E+00
    -39.777  0.3382E+02  0.3381E+02  0.7000E+01  0.6997E+01
    -39.591  0.1041E+02  0.1042E+02  0.8938E+01  0.8938E+01
    -39.404  0.0000E+00  0.0000E+00  0.9000E+01  0.9000E+01
    -39.218  0.0000E+00  0.0000E+00  0.9000E+01  0.9000E+01
    -39.032  0.0000E+00  0.0000E+00  0.9000E+01  0.9000E+01
    -38.845  0.0000E+00  0.0000E+00  0.9000E+01  0.9000E+01
    -38.659  0.0000E+00  0.0000E+00  0.9000E+01  0.9000E+01
    -38.473  0.0000E+00  0.0000E+00  0.9000E+01  0.9000E+01
    -38.287  0.0000E+00  0.0000E+00  0.9000E+01  0.9000E+01
    -38.100  0.0000E+00  0.0000E+00  0.9000E+01  0.9000E+01
    -37.914  0.0000E+00  0.0000E+00  0.9000E+01  0.9000E+01
    -37.728  0.0000E+00  0.0000E+00  0.9000E+01  0.9000E+01
    -37.542  0.0000E+00  0.0000E+00  0.9000E+01  0.9000E+01
    -37.355  0.0000E+00  0.0000E+00  0.9000E+01  0.9000E+01
    -37.169  0.0000E+00  0.0000E+00  0.9000E+01  0.9000E+01
    -36.983  0.0000E+00  0.0000E+00  0.9000E+01  0.9000E+01
    -36.796  0.0000E+00  0.0000E+00  0.9000E+01  0.9000E+01
    -36.610  0.0000E+00  0.0000E+00  0.9000E+01  0.9000E+01
    -36.424  0.0000E+00  0.0000E+00  0.9000E+01  0.9000E+01
    -36.238  0.0000E+00  0.0000E+00  0.9000E+01  0.9000E+01
    -36.051  0.0000E+00  0.0000E+00  0.9000E+01  0.9000E+01
    -35.865  0.0000E+00  0.0000E+00  0.9000E+01  0.9000E+01
    -35.679  0.0000E+00  0.0000E+00  0.9000E+01  0.9000E+01
    -35.493  0.0000E+00  0.0000E+00  0.9000E+01  0.9000E+01
    -35.306  0.0000E+00  0.0000E+00  0.9000E+01  0.9000E+01
    -35.120  0.0000E+00  0.0000E+00  0.9000E+01  0.9000E+01
    -34.934  0.0000E+00  0.0000E+00  0.9000E+01  0.9000E+01
    -34.748  0.0000E+00  0.0000E+00  0.9000E+01  0.9000E+01
    -34.561  0.0000E+00  0.0000E+00  0.9000E+01  0.9000E+01
    -34.375  0.0000E+00  0.0000E+00  0.9000E+01  0.9000E+01
    -34.189  0.0000E+00  0.0000E+00  0.9000E+01  0.9000E+01
    -34.002  0.0000E+00  0.0000E+00  0.9000E+01  0.9000E+01
    -33.816  0.0000E+00  0.0000E+00  0.9000E+01  0.9000E+01
    -33.630  0.0000E+00  0.0000E+00  0.9000E+01  0.9000E+01
    -33.444  0.0000E+00  0.0000E+00  0.9000E+01  0.9000E+01
    -33.257  0.0000E+00  0.0000E+00  0.9000E+01  0.9000E+01
    -33.071  0.0000E+00  0.0000E+00  0.9000E+01  0.9000E+01
    -32.885  0.0000E+00  0.0000E+00  0.9000E+01  0.9000E+01
    -32.699  0.0000E+00  0.0000E+00  0.9000E+01  0.9000E+01
    -32.512  0.0000E+00  0.0000E+00  0.9000E+01  0.9000E+01
    -32.326  0.0000E+00  0.0000E+00  0.9000E+01  0.9000E+01
    -32.140  0.0000E+00  0.0000E+00  0.9000E+01  0.9000E+01
    -31.954  0.0000E+00  0.0000E+00  0.9000E+01  0.9000E+01
    -31.767  0.0000E+00  0.0000E+00  0.9000E+01  0.9000E+01
    -31.581  0.0000E+00  0.0000E+00  0.9000E+01  0.9000E+01
    -31.395  0.0000E+00  0.0000E+00  0.9000E+01  0.9000E+01
    -31.208  0.0000E+00  0.0000E+00  0.9000E+01  0.9000E+01
    -31.022  0.0000E+00  0.0000E+00  0.9000E+01  0.9000E+01
    -30.836  0.0000E+00  0.0000E+00  0.9000E+01  0.9000E+01
    -30.650  0.0000E+00  0.0000E+00  0.9000E+01  0.9000E+01
    -30.463  0.0000E+00  0.0000E+00  0.9000E+01  0.9000E+01
    -30.277  0.0000E+00  0.0000E+00  0.9000E+01  0.9000E+01
    -30.091  0.0000E+00  0.0000E+00  0.9000E+01  0.9000E+01
    -29.905  0.0000E+00  0.0000E+00  0.9000E+01  0.9000E+01
    -29.718  0.0000E+00  0.0000E+00  0.9000E+01  0.9000E+01
    -29.532  0.0000E+00  0.0000E+00  0.9000E+01  0.9000E+01
    -29.346  0.0000E+00  0.0000E+00  0.9000E+01  0.9000E+01
    -29.159  0.0000E+00  0.0000E+00  0.9000E+01  0.9000E+01
    -28.973  0.0000E+00  0.0000E+00  0.9000E+01  0.9000E+01
    -28.787  0.0000E+00  0.0000E+00  0.9000E+01  0.9000E+01
    -28.601  0.0000E+00  0.0000E+00  0.9000E+01  0.9000E+01
    -28.414  0.0000E+00  0.0000E+00  0.9000E+01  0.9000E+01
    -28.228  0.0000E+00  0.0000E+00  0.9000E+01  0.9000E+01
    -28.042  0.0000E+00  0.0000E+00  0.9000E+01  0.9000E+01
    -27.856  0.0000E+00  0.0000E+00  0.9000E+01  0.9000E+01
    -27.669  0.0000E+00  0.0000E+00  0.9000E+01  0.9000E+01
    -27.483  0.0000E+00  0.0000E+00  0.9000E+01  0.9000E+01
    -27.297  0.0000E+00  0.0000E+00  0.9000E+01  0.9000E+01
    -27.111  0.0000E+00  0.0000E+00  0.9000E+01  0.9000E+01
    -26.924  0.0000E+00  0.0000E+00  0.9000E+01  0.9000E+01
    -26.738  0.0000E+00  0.0000E+00  0.9000E+01  0.9000E+01
    -26.552  0.0000E+00  0.0000E+00  0.9000E+01  0.9000E+01
    -26.365  0.0000E+00  0.0000E+00  0.9000E+01  0.9000E+01
    -26.179  0.0000E+00  0.0000E+00  0.9000E+01  0.9000E+01
    -25.993  0.0000E+00  0.0000E+00  0.9000E+01  0.9000E+01
    -25.807  0.0000E+00  0.0000E+00  0.9000E+01  0.9000E+01
    -25.620  0.0000E+00  0.0000E+00  0.9000E+01  0.9000E+01
    -25.434  0.0000E+00  0.0000E+00  0.9000E+01  0.9000E+01
    -25.248  0.0000E+00  0.0000E+00  0.9000E+01  0.9000E+01
    -25.062  0.0000E+00  0.0000E+00  0.9000E+01  0.9000E+01
    -24.875  0.0000E+00  0.0000E+00  0.9000E+01  0.9000E+01
    -24.689  0.0000E+00  0.0000E+00  0.9000E+01  0.9000E+01
    -24.503  0.0000E+00  0.0000E+00  0.9000E+01  0.9000E+01
    -24.316  0.0000E+00  0.0000E+00  0.9000E+01  0.9000E+01
    -24.130  0.0000E+00  0.0000E+00  0.9000E+01  0.9000E+01
    -23.944  0.0000E+00  0.0000E+00  0.9000E+01  0.9000E+01
    -23.758  0.0000E+00  0.0000E+00  0.9000E+01  0.9000E+01
    -23.571  0.0000E+00  0.0000E+00  0.9000E+01  0.9000E+01
    -23.385  0.0000E+00  0.0000E+00  0.9000E+01  0.9000E+01
    -23.199  0.0000E+00  0.0000E+00  0.9000E+01  0.9000E+01
    -23.013  0.0000E+00  0.0000E+00  0.9000E+01  0.9000E+01
    -22.826  0.0000E+00  0.0000E+00  0.9000E+01  0.9000E+01
    -22.640  0.0000E+00  0.0000E+00  0.9000E+01  0.9000E+01
    -22.454  0.0000E+00  0.0000E+00  0.9000E+01  0.9000E+01
    -22.268  0.0000E+00  0.0000E+00  0.9000E+01  0.9000E+01
    -22.081  0.0000E+00  0.0000E+00  0.9000E+01  0.9000E+01
    -21.895  0.0000E+00  0.0000E+00  0.9000E+01  0.9000E+01
    -21.709  0.0000E+00  0.0000E+00  0.9000E+01  0.9000E+01
    -21.522  0.0000E+00  0.0000E+00  0.9000E+01  0.9000E+01
    -21.336  0.0000E+00  0.0000E+00  0.9000E+01  0.9000E+01
    -21.150  0.0000E+00  0.0000E+00  0.9000E+01  0.9000E+01
    -20.964  0.0000E+00  0.0000E+00  0.9000E+01  0.9000E+01
    -20.777  0.0000E+00  0.0000E+00  0.9000E+01  0.9000E+01
    -20.591  0.0000E+00  0.0000E+00  0.9000E+01  0.9000E+01
    -20.405  0.0000E+00  0.0000E+00  0.9000E+01  0.9000E+01
    -20.219  0.0000E+00  0.0000E+00  0.9000E+01  0.9000E+01
    -20.032  0.0000E+00  0.0000E+00  0.9000E+01  0.9000E+01
    -19.846  0.0000E+00  0.0000E+00  0.9000E+01  0.9000E+01
    -19.660  0.0000E+00  0.0000E+00  0.9000E+01  0.9000E+01
    -19.474  0.0000E+00  0.0000E+00  0.9000E+01  0.9000E+01
    -19.287  0.0000E+00  0.0000E+00  0.9000E+01  0.9000E+01
    -19.101  0.0000E+00  0.0000E+00  0.9000E+01  0.9000E+01
    -18.915  0.0000E+00  0.0000E+00  0.9000E+01  0.9000E+01
    -18.728  0.0000E+00  0.0000E+00  0.9000E+01  0.9000E+01
    -18.542  0.0000E+00  0.0000E+00  0.9000E+01  0.9000E+01
    -18.356  0.0000E+00  0.0000E+00  0.9000E+01  0.9000E+01
    -18.170  0.0000E+00  0.0000E+00  0.9000E+01  0.9000E+01
    -17.983  0.0000E+00  0.0000E+00  0.9000E+01  0.9000E+01
    -17.797  0.0000E+00  0.0000E+00  0.9000E+01  0.9000E+01
    -17.611  0.0000E+00  0.0000E+00  0.9000E+01  0.9000E+01
    -17.425  0.0000E+00  0.0000E+00  0.9000E+01  0.9000E+01
    -17.238  0.0000E+00  0.0000E+00  0.9000E+01  0.9000E+01
    -17.052  0.0000E+00  0.0000E+00  0.9000E+01  0.9000E+01
    -16.866  0.0000E+00  0.0000E+00  0.9000E+01  0.9000E+01
    -16.679  0.0000E+00  0.0000E+00  0.9000E+01  0.9000E+01
    -16.493  0.0000E+00  0.0000E+00  0.9000E+01  0.9000E+01
    -16.307  0.0000E+00  0.0000E+00  0.9000E+01  0.9000E+01
    -16.121  0.0000E+00  0.0000E+00  0.9000E+01  0.9000E+01
    -15.934  0.0000E+00  0.0000E+00  0.9000E+01  0.9000E+01
    -15.748  0.0000E+00  0.0000E+00  0.9000E+01  0.9000E+01
    -15.562  0.0000E+00  0.0000E+00  0.9000E+01  0.9000E+01
    -15.376  0.0000E+00  0.0000E+00  0.9000E+01  0.9000E+01
    -15.189  0.0000E+00  0.0000E+00  0.9000E+01  0.9000E+01
    -15.003  0.0000E+00  0.0000E+00  0.9000E+01  0.9000E+01
    -14.817  0.0000E+00  0.0000E+00  0.9000E+01  0.9000E+01
    -14.631  0.0000E+00  0.0000E+00  0.9000E+01  0.9000E+01
    -14.444  0.3975E-04  0.3960E-04  0.9000E+01  0.9000E+01
    -14.258  0.1870E-02  0.1863E-02  0.9000E+01  0.9000E+01
    -14.072  0.6833E-01  0.6811E-01  0.9013E+01  0.9013E+01
    -13.885  0.8620E+00  0.8606E+00  0.9174E+01  0.9173E+01
    -13.699  0.1648E+01  0.1649E+01  0.9481E+01  0.9480E+01
    -13.513  0.2524E+01  0.2523E+01  0.9951E+01  0.9951E+01
    -13.327  0.2200E+01  0.2200E+01  0.1036E+02  0.1036E+02
    -13.140  0.4804E+01  0.4802E+01  0.1126E+02  0.1126E+02
    -12.954  0.8142E+01  0.8138E+01  0.1278E+02  0.1277E+02
    -12.768  0.1042E+02  0.1042E+02  0.1472E+02  0.1472E+02
    -12.582  0.1428E+01  0.1431E+01  0.1499E+02  0.1499E+02
    -12.395  0.0000E+00  0.0000E+00  0.1500E+02  0.1500E+02
    -12.209  0.0000E+00  0.0000E+00  0.1500E+02  0.1500E+02
    -12.023  0.0000E+00  0.0000E+00  0.1500E+02  0.1500E+02
    -11.836  0.0000E+00  0.0000E+00  0.1500E+02  0.1500E+02
    -11.650  0.0000E+00  0.0000E+00  0.1500E+02  0.1500E+02
    -11.464  0.0000E+00  0.0000E+00  0.1500E+02  0.1500E+02
    -11.278  0.0000E+00  0.0000E+00  0.1500E+02  0.1500E+02
    -11.091  0.0000E+00  0.0000E+00  0.1500E+02  0.1500E+02
    -10.905  0.0000E+00  0.0000E+00  0.1500E+02  0.1500E+02
    -10.719  0.0000E+00  0.0000E+00  0.1500E+02  0.1500E+02
    -10.533  0.0000E+00  0.0000E+00  0.1500E+02  0.1500E+02
    -10.346  0.0000E+00  0.0000E+00  0.1500E+02  0.1500E+02
    -10.160  0.0000E+00  0.0000E+00  0.1500E+02  0.1500E+02
     -9.974  0.0000E+00  0.0000E+00  0.1500E+02  0.1500E+02
     -9.788  0.0000E+00  0.0000E+00  0.1500E+02  0.1500E+02
     -9.601  0.0000E+00  0.0000E+00  0.1500E+02  0.1500E+02
     -9.415  0.0000E+00  0.0000E+00  0.1500E+02  0.1500E+02
     -9.229  0.0000E+00  0.0000E+00  0.1500E+02  0.1500E+02
     -9.042  0.0000E+00  0.0000E+00  0.1500E+02  0.1500E+02
     -8.856  0.0000E+00  0.0000E+00  0.1500E+02  0.1500E+02
     -8.670  0.0000E+00  0.0000E+00  0.1500E+02  0.1500E+02
     -8.484  0.0000E+00  0.0000E+00  0.1500E+02  0.1500E+02
     -8.297  0.0000E+00  0.0000E+00  0.1500E+02  0.1500E+02
     -8.111  0.0000E+00  0.0000E+00  0.1500E+02  0.1500E+02
     -7.925  0.0000E+00  0.0000E+00  0.1500E+02  0.1500E+02
     -7.739  0.0000E+00  0.0000E+00  0.1500E+02  0.1500E+02
     -7.552  0.0000E+00  0.0000E+00  0.1500E+02  0.1500E+02
     -7.366  0.0000E+00  0.0000E+00  0.1500E+02  0.1500E+02
     -7.180  0.0000E+00  0.0000E+00  0.1500E+02  0.1500E+02
     -6.993  0.0000E+00  0.0000E+00  0.1500E+02  0.1500E+02
     -6.807  0.0000E+00  0.0000E+00  0.1500E+02  0.1500E+02
     -6.621  0.0000E+00  0.0000E+00  0.1500E+02  0.1500E+02
     -6.435  0.0000E+00  0.0000E+00  0.1500E+02  0.1500E+02
     -6.248  0.0000E+00  0.0000E+00  0.1500E+02  0.1500E+02
     -6.062  0.0000E+00  0.0000E+00  0.1500E+02  0.1500E+02
     -5.876  0.0000E+00  0.0000E+00  0.1500E+02  0.1500E+02
     -5.690  0.0000E+00  0.0000E+00  0.1500E+02  0.1500E+02
     -5.503  0.0000E+00  0.0000E+00  0.1500E+02  0.1500E+02
     -5.317  0.0000E+00  0.0000E+00  0.1500E+02  0.1500E+02
     -5.131  0.0000E+00  0.0000E+00  0.1500E+02  0.1500E+02
     -4.945  0.0000E+00  0.0000E+00  0.1500E+02  0.1500E+02
     -4.758  0.0000E+00  0.0000E+00  0.1500E+02  0.1500E+02
     -4.572  0.0000E+00  0.0000E+00  0.1500E+02  0.1500E+02
     -4.386  0.0000E+00  0.0000E+00  0.1500E+02  0.1500E+02
     -4.199  0.0000E+00  0.0000E+00  0.1500E+02  0.1500E+02
     -4.013  0.2380E-03  0.2359E-03  0.1500E+02  0.1500E+02
     -3.827  0.9593E-02  0.9508E-02  0.1500E+02  0.1500E+02
     -3.641  0.3360E+00  0.3335E+00  0.1506E+02  0.1506E+02
     -3.454  0.2431E+01  0.2427E+01  0.1552E+02  0.1552E+02
     -3.268  0.1968E+01  0.1968E+01  0.1588E+02  0.1588E+02
     -3.082  0.4654E+01  0.4649E+01  0.1675E+02  0.1675E+02
     -2.896  0.5290E+01  0.5284E+01  0.1774E+02  0.1773E+02
     -2.709  0.7624E+01  0.7625E+01  0.1916E+02  0.1916E+02
     -2.523  0.4302E+01  0.4314E+01  0.1996E+02  0.1996E+02
     -2.337  0.2530E+01  0.2531E+01  0.2044E+02  0.2044E+02
     -2.151  0.1067E+01  0.1070E+01  0.2064E+02  0.2064E+02
     -1.964  0.1677E+01  0.1675E+01  0.2096E+02  0.2096E+02
     -1.778  0.3780E+01  0.3777E+01  0.2166E+02  0.2166E+02
     -1.592  0.4103E+01  0.4104E+01  0.2243E+02  0.2243E+02
     -1.405  0.4370E+01  0.4368E+01  0.2325E+02  0.2324E+02
     -1.219  0.6725E+01  0.6723E+01  0.2450E+02  0.2450E+02
     -1.033  0.5715E+01  0.5719E+01  0.2557E+02  0.2557E+02
     -0.847  0.4488E+01  0.4484E+01  0.2641E+02  0.2641E+02
     -0.660  0.9774E+01  0.9775E+01  0.2823E+02  0.2823E+02
     -0.474  0.8813E+01  0.8812E+01  0.2988E+02  0.2988E+02
     -0.288  0.9406E+01  0.9409E+01  0.3164E+02  0.3164E+02
     -0.102  0.5305E+01  0.5307E+01  0.3263E+02  0.3263E+02
      0.085  0.1740E+01  0.1741E+01  0.3296E+02  0.3296E+02
      0.271  0.1648E+00  0.1650E+00  0.3300E+02  0.3300E+02
      0.457  0.0000E+00  0.0000E+00  0.3300E+02  0.3300E+02
      0.644  0.0000E+00  0.0000E+00  0.3300E+02  0.3300E+02
      0.830  0.0000E+00  0.0000E+00  0.3300E+02  0.3300E+02
      1.016  0.0000E+00  0.0000E+00  0.3300E+02  0.3300E+02
      1.202  0.0000E+00  0.0000E+00  0.3300E+02  0.3300E+02
      1.389  0.0000E+00  0.0000E+00  0.3300E+02  0.3300E+02
      1.575  0.0000E+00  0.0000E+00  0.3300E+02  0.3300E+02
      1.761  0.0000E+00  0.0000E+00  0.3300E+02  0.3300E+02
      1.947  0.0000E+00  0.0000E+00  0.3300E+02  0.3300E+02
      2.134  0.0000E+00  0.0000E+00  0.3300E+02  0.3300E+02
      2.320  0.0000E+00  0.0000E+00  0.3300E+02  0.3300E+02
      2.506  0.0000E+00  0.0000E+00  0.3300E+02  0.3300E+02
      2.692  0.0000E+00  0.0000E+00  0.3300E+02  0.3300E+02
      2.879  0.0000E+00  0.0000E+00  0.3300E+02  0.3300E+02
      3.065  0.0000E+00  0.0000E+00  0.3300E+02  0.3300E+02
      3.251  0.0000E+00  0.0000E+00  0.3300E+02  0.3300E+02
      3.438  0.0000E+00  0.0000E+00  0.3300E+02  0.3300E+02
      3.624  0.0000E+00  0.0000E+00  0.3300E+02  0.3300E+02
      3.810  0.0000E+00  0.0000E+00  0.3300E+02  0.3300E+02
      3.996  0.0000E+00  0.0000E+00  0.3300E+02  0.3300E+02
      4.183  0.0000E+00  0.0000E+00  0.3300E+02  0.3300E+02
      4.369  0.0000E+00  0.0000E+00  0.3300E+02  0.3300E+02
      4.555  0.0000E+00  0.0000E+00  0.3300E+02  0.3300E+02
      4.741  0.0000E+00  0.0000E+00  0.3300E+02  0.3300E+02
      4.928  0.0000E+00  0.0000E+00  0.3300E+02  0.3300E+02
      5.114  0.0000E+00  0.0000E+00  0.3300E+02  0.3300E+02
      5.300  0.0000E+00  0.0000E+00  0.3300E+02  0.3300E+02
      5.487  0.0000E+00  0.0000E+00  0.3300E+02  0.3300E+02
      5.673  0.1979E-05  0.1975E-05  0.3300E+02  0.3300E+02
      5.859  0.8005E-04  0.7991E-04  0.3300E+02  0.3300E+02
      6.045  0.3221E-02  0.3216E-02  0.3300E+02  0.3300E+02
      6.232  0.5841E-01  0.5837E-01  0.3301E+02  0.3301E+02
      6.418  0.4586E-01  0.4590E-01  0.3302E+02  0.3302E+02
      6.604  0.2692E-02  0.2692E-02  0.3302E+02  0.3302E+02
      6.790  0.2950E-01  0.2936E-01  0.3303E+02  0.3303E+02
      6.977  0.6289E+00  0.6271E+00  0.3314E+02  0.3314E+02
      7.163  0.9616E+00  0.9612E+00  0.3332E+02  0.3332E+02
      7.349  0.1053E+01  0.1051E+01  0.3352E+02  0.3352E+02
      7.535  0.1156E+01  0.1155E+01  0.3373E+02  0.3373E+02
      7.722  0.1979E+01  0.1976E+01  0.3410E+02  0.3410E+02
      7.908  0.3478E+01  0.3466E+01  0.3475E+02  0.3475E+02
      8.094  0.3780E+01  0.3771E+01  0.3546E+02  0.3545E+02
      8.281  0.4752E+01  0.4747E+01  0.3635E+02  0.3634E+02
      8.467  0.4568E+01  0.4580E+01  0.3720E+02  0.3720E+02
      8.653  0.2433E+01  0.2434E+01  0.3765E+02  0.3765E+02
      8.839  0.3030E+01  0.2960E+01  0.3822E+02  0.3821E+02
      9.026  0.3830E+01  0.3874E+01  0.3894E+02  0.3893E+02
      9.212  0.4503E+01  0.4468E+01  0.3978E+02  0.3976E+02
      9.398  0.3958E+01  0.3964E+01  0.4052E+02  0.4050E+02
      9.584  0.2579E+01  0.2550E+01  0.4100E+02  0.4098E+02
      9.771  0.2249E+01  0.2273E+01  0.4142E+02  0.4140E+02
      9.957  0.3535E+01  0.3793E+01  0.4208E+02  0.4211E+02
     10.143  0.2014E+01  0.1775E+01  0.4246E+02  0.4244E+02
     10.329  0.2445E+01  0.2392E+01  0.4291E+02  0.4289E+02
     10.516  0.2255E+01  0.2857E+01  0.4333E+02  0.4342E+02
     10.702  0.1403E+01  0.1763E+01  0.4360E+02  0.4375E+02
     10.888  0.1355E+01  0.8935E+00  0.4385E+02  0.4392E+02
     11.075  0.7397E+00  0.4078E+00  0.4399E+02  0.4400E+02
     11.261  0.5469E-01  0.1525E-01  0.4400E+02  0.4400E+02
     11.447  0.0000E+00  0.0000E+00  0.4400E+02  0.4400E+02
     11.633  0.0000E+00  0.0000E+00  0.4400E+02  0.4400E+02
     11.820  0.0000E+00  0.0000E+00  0.4400E+02  0.4400E+02
     12.006  0.0000E+00  0.0000E+00  0.4400E+02  0.4400E+02
     12.192  0.0000E+00  0.0000E+00  0.4400E+02  0.4400E+02
     12.378  0.0000E+00  0.0000E+00  0.4400E+02  0.4400E+02
     12.565  0.0000E+00  0.0000E+00  0.4400E+02  0.4400E+02
     12.751  0.0000E+00  0.0000E+00  0.4400E+02  0.4400E+02
     12.937  0.0000E+00  0.0000E+00  0.4400E+02  0.4400E+02
     13.124  0.0000E+00  0.0000E+00  0.4400E+02  0.4400E+02
     13.310  0.0000E+00  0.0000E+00  0.4400E+02  0.4400E+02
     13.496  0.0000E+00  0.0000E+00  0.4400E+02  0.4400E+02
     13.49606411    -42.38456189  301      1.20378161      1.00000000
    -42.385  0.0000E+00  0.0000E+00  0.0000E+00  0.0000E+00  0.0000E+00  0.0000E+00  0.0000E+00  0.0000E+00  0.0000E+00  0.0000E+00  0.0000E+00  0.0000E+00  0.0000E+00  0.0000E+00  0.0000E+00  0.0000E+00  0.0000E+00  0.0000E+00
    -42.198  0.0000E+00  0.0000E+00  0.0000E+00  0.0000E+00  0.0000E+00  0.0000E+00  0.0000E+00  0.0000E+00  0.0000E+00  0.0000E+00  0.0000E+00  0.0000E+00  0.0000E+00  0.0000E+00  0.0000E+00  0.0000E+00  0.0000E+00  0.0000E+00
    -42.012  0.0000E+00  0.0000E+00  0.0000E+00  0.0000E+00  0.0000E+00  0.0000E+00  0.0000E+00  0.0000E+00  0.0000E+00  0.0000E+00  0.0000E+00  0.0000E+00  0.0000E+00  0.0000E+00  0.0000E+00  0.0000E+00  0.0000E+00  0.0000E+00
    -41.826  0.0000E+00  0.0000E+00  0.0000E+00  0.0000E+00  0.0000E+00  0.0000E+00  0.0000E+00  0.0000E+00  0.0000E+00  0.0000E+00  0.0000E+00  0.0000E+00  0.0000E+00  0.0000E+00  0.0000E+00  0.0000E+00  0.0000E+00  0.0000E+00
    -41.639  0.0000E+00  0.0000E+00  0.0000E+00  0.0000E+00  0.0000E+00  0.0000E+00  0.0000E+00  0.0000E+00  0.0000E+00  0.0000E+00  0.0000E+00  0.0000E+00  0.0000E+00  0.0000E+00  0.0000E+00  0.0000E+00  0.0000E+00  0.0000E+00
    -41.453  0.0000E+00  0.0000E+00  0.0000E+00  0.0000E+00  0.0000E+00  0.0000E+00  0.0000E+00  0.0000E+00  0.0000E+00  0.0000E+00  0.0000E+00  0.0000E+00  0.0000E+00  0.0000E+00  0.0000E+00  0.0000E+00  0.0000E+00  0.0000E+00
    -41.267  0.0000E+00  0.0000E+00  0.0000E+00  0.0000E+00  0.0000E+00  0.0000E+00  0.0000E+00  0.0000E+00  0.0000E+00  0.0000E+00  0.0000E+00  0.0000E+00  0.0000E+00  0.0000E+00  0.0000E+00  0.0000E+00  0.0000E+00  0.0000E+00
    -41.081  0.0000E+00  0.0000E+00  0.0000E+00  0.0000E+00  0.0000E+00  0.0000E+00  0.0000E+00  0.0000E+00  0.0000E+00  0.0000E+00  0.0000E+00  0.0000E+00  0.0000E+00  0.0000E+00  0.0000E+00  0.0000E+00  0.0000E+00  0.0000E+00
    -40.894  0.0000E+00  0.0000E+00  0.0000E+00  0.0000E+00  0.0000E+00  0.0000E+00  0.0000E+00  0.0000E+00  0.0000E+00  0.0000E+00  0.0000E+00  0.0000E+00  0.0000E+00  0.0000E+00  0.0000E+00  0.0000E+00  0.0000E+00  0.0000E+00
    -40.708  0.0000E+00  0.0000E+00  0.0000E+00  0.0000E+00  0.0000E+00  0.0000E+00  0.0000E+00  0.0000E+00  0.0000E+00  0.0000E+00  0.0000E+00  0.0000E+00  0.0000E+00  0.0000E+00  0.0000E+00  0.0000E+00  0.0000E+00  0.0000E+00
    -40.522  0.0000E+00  0.0000E+00  0.0000E+00  0.0000E+00  0.0000E+00  0.0000E+00  0.0000E+00  0.0000E+00  0.0000E+00  0.0000E+00  0.0000E+00  0.0000E+00  0.0000E+00  0.0000E+00  0.0000E+00  0.0000E+00  0.0000E+00  0.0000E+00
    -40.336  0.1388E-10  0.1385E-10  0.2610E-03  0.2605E-03  0.2640E-03  0.2634E-03  0.2610E-03  0.2605E-03  0.1346E-11  0.1346E-11  0.1335E-12  0.1334E-12  0.7840E-12  0.7849E-12  0.1335E-12  0.1334E-12  0.1346E-11  0.1346E-11
    -40.149  0.5609E-09  0.5596E-09  0.1054E-01  0.1052E-01  0.1066E-01  0.1064E-01  0.1054E-01  0.1052E-01  0.5437E-10  0.5439E-10  0.5394E-11  0.5391E-11  0.3168E-10  0.3171E-10  0.5394E-11  0.5391E-11  0.5437E-10  0.5439E-10
    -39.963  0.2143E-07  0.2138E-07  0.4034E+00  0.4027E+00  0.4077E+00  0.4070E+00  0.4034E+00  0.4027E+00  0.2080E-08  0.2081E-08  0.2061E-09  0.2060E-09  0.1210E-08  0.1212E-08  0.2061E-09  0.2060E-09  0.2080E-08  0.2081E-08
    -39.777  0.1950E-06  0.1949E-06  0.3730E+01  0.3729E+01  0.3739E+01  0.3738E+01  0.3730E+01  0.3729E+01  0.1926E-07  0.1930E-07  0.1881E-08  0.1883E-08  0.1105E-07  0.1108E-07  0.1881E-08  0.1883E-08  0.1926E-07  0.1930E-07
    -39.591  0.5908E-07  0.5914E-07  0.1153E+01  0.1154E+01  0.1141E+01  0.1143E+01  0.1153E+01  0.1154E+01  0.5954E-08  0.5976E-08  0.5707E-09  0.5724E-09  0.3359E-08  0.3374E-08  0.5707E-09  0.5724E-09  0.5954E-08  0.5976E-08
    -39.404  0.0000E+00  0.0000E+00  0.0000E+00  0.0000E+00  0.0000E+00  0.0000E+00  0.0000E+00  0.0000E+00  0.0000E+00  0.0000E+00  0.0000E+00  0.0000E+00  0.0000E+00  0.0000E+00  0.0000E+00  0.0000E+00  0.0000E+00  0.0000E+00
    -39.218  0.0000E+00  0.0000E+00  0.0000E+00  0.0000E+00  0.0000E+00  0.0000E+00  0.0000E+00  0.0000E+00  0.0000E+00  0.0000E+00  0.0000E+00  0.0000E+00  0.0000E+00  0.0000E+00  0.0000E+00  0.0000E+00  0.0000E+00  0.0000E+00
    -39.032  0.0000E+00  0.0000E+00  0.0000E+00  0.0000E+00  0.0000E+00  0.0000E+00  0.0000E+00  0.0000E+00  0.0000E+00  0.0000E+00  0.0000E+00  0.0000E+00  0.0000E+00  0.0000E+00  0.0000E+00  0.0000E+00  0.0000E+00  0.0000E+00
    -38.845  0.0000E+00  0.0000E+00  0.0000E+00  0.0000E+00  0.0000E+00  0.0000E+00  0.0000E+00  0.0000E+00  0.0000E+00  0.0000E+00  0.0000E+00  0.0000E+00  0.0000E+00  0.0000E+00  0.0000E+00  0.0000E+00  0.0000E+00  0.0000E+00
    -38.659  0.0000E+00  0.0000E+00  0.0000E+00  0.0000E+00  0.0000E+00  0.0000E+00  0.0000E+00  0.0000E+00  0.0000E+00  0.0000E+00  0.0000E+00  0.0000E+00  0.0000E+00  0.0000E+00  0.0000E+00  0.0000E+00  0.0000E+00  0.0000E+00
    -38.473  0.0000E+00  0.0000E+00  0.0000E+00  0.0000E+00  0.0000E+00  0.0000E+00  0.0000E+00  0.0000E+00  0.0000E+00  0.0000E+00  0.0000E+00  0.0000E+00  0.0000E+00  0.0000E+00  0.0000E+00  0.0000E+00  0.0000E+00  0.0000E+00
    -38.287  0.0000E+00  0.0000E+00  0.0000E+00  0.0000E+00  0.0000E+00  0.0000E+00  0.0000E+00  0.0000E+00  0.0000E+00  0.0000E+00  0.0000E+00  0.0000E+00  0.0000E+00  0.0000E+00  0.0000E+00  0.0000E+00  0.0000E+00  0.0000E+00
    -38.100  0.0000E+00  0.0000E+00  0.0000E+00  0.0000E+00  0.0000E+00  0.0000E+00  0.0000E+00  0.0000E+00  0.0000E+00  0.0000E+00  0.0000E+00  0.0000E+00  0.0000E+00  0.0000E+00  0.0000E+00  0.0000E+00  0.0000E+00  0.0000E+00
    -37.914  0.0000E+00  0.0000E+00  0.0000E+00  0.0000E+00  0.0000E+00  0.0000E+00  0.0000E+00  0.0000E+00  0.0000E+00  0.0000E+00  0.0000E+00  0.0000E+00  0.0000E+00  0.0000E+00  0.0000E+00  0.0000E+00  0.0000E+00  0.0000E+00
    -37.728  0.0000E+00  0.0000E+00  0.0000E+00  0.0000E+00  0.0000E+00  0.0000E+00  0.0000E+00  0.0000E+00  0.0000E+00  0.0000E+00  0.0000E+00  0.0000E+00  0.0000E+00  0.0000E+00  0.0000E+00  0.0000E+00  0.0000E+00  0.0000E+00
    -37.542  0.0000E+00  0.0000E+00  0.0000E+00  0.0000E+00  0.0000E+00  0.0000E+00  0.0000E+00  0.0000E+00  0.0000E+00  0.0000E+00  0.0000E+00  0.0000E+00  0.0000E+00  0.0000E+00  0.0000E+00  0.0000E+00  0.0000E+00  0.0000E+00
    -37.355  0.0000E+00  0.0000E+00  0.0000E+00  0.0000E+00  0.0000E+00  0.0000E+00  0.0000E+00  0.0000E+00  0.0000E+00  0.0000E+00  0.0000E+00  0.0000E+00  0.0000E+00  0.0000E+00  0.0000E+00  0.0000E+00  0.0000E+00  0.0000E+00
    -37.169  0.0000E+00  0.0000E+00  0.0000E+00  0.0000E+00  0.0000E+00  0.0000E+00  0.0000E+00  0.0000E+00  0.0000E+00  0.0000E+00  0.0000E+00  0.0000E+00  0.0000E+00  0.0000E+00  0.0000E+00  0.0000E+00  0.0000E+00  0.0000E+00
    -36.983  0.0000E+00  0.0000E+00  0.0000E+00  0.0000E+00  0.0000E+00  0.0000E+00  0.0000E+00  0.0000E+00  0.0000E+00  0.0000E+00  0.0000E+00  0.0000E+00  0.0000E+00  0.0000E+00  0.0000E+00  0.0000E+00  0.0000E+00  0.0000E+00
    -36.796  0.0000E+00  0.0000E+00  0.0000E+00  0.0000E+00  0.0000E+00  0.0000E+00  0.0000E+00  0.0000E+00  0.0000E+00  0.0000E+00  0.0000E+00  0.0000E+00  0.0000E+00  0.0000E+00  0.0000E+00  0.0000E+00  0.0000E+00  0.0000E+00
    -36.610  0.0000E+00  0.0000E+00  0.0000E+00  0.0000E+00  0.0000E+00  0.0000E+00  0.0000E+00  0.0000E+00  0.0000E+00  0.0000E+00  0.0000E+00  0.0000E+00  0.0000E+00  0.0000E+00  0.0000E+00  0.0000E+00  0.0000E+00  0.0000E+00
    -36.424  0.0000E+00  0.0000E+00  0.0000E+00  0.0000E+00  0.0000E+00  0.0000E+00  0.0000E+00  0.0000E+00  0.0000E+00  0.0000E+00  0.0000E+00  0.0000E+00  0.0000E+00  0.0000E+00  0.0000E+00  0.0000E+00  0.0000E+00  0.0000E+00
    -36.238  0.0000E+00  0.0000E+00  0.0000E+00  0.0000E+00  0.0000E+00  0.0000E+00  0.0000E+00  0.0000E+00  0.0000E+00  0.0000E+00  0.0000E+00  0.0000E+00  0.0000E+00  0.0000E+00  0.0000E+00  0.0000E+00  0.0000E+00  0.0000E+00
    -36.051  0.0000E+00  0.0000E+00  0.0000E+00  0.0000E+00  0.0000E+00  0.0000E+00  0.0000E+00  0.0000E+00  0.0000E+00  0.0000E+00  0.0000E+00  0.0000E+00  0.0000E+00  0.0000E+00  0.0000E+00  0.0000E+00  0.0000E+00  0.0000E+00
    -35.865  0.0000E+00  0.0000E+00  0.0000E+00  0.0000E+00  0.0000E+00  0.0000E+00  0.0000E+00  0.0000E+00  0.0000E+00  0.0000E+00  0.0000E+00  0.0000E+00  0.0000E+00  0.0000E+00  0.0000E+00  0.0000E+00  0.0000E+00  0.0000E+00
    -35.679  0.0000E+00  0.0000E+00  0.0000E+00  0.0000E+00  0.0000E+00  0.0000E+00  0.0000E+00  0.0000E+00  0.0000E+00  0.0000E+00  0.0000E+00  0.0000E+00  0.0000E+00  0.0000E+00  0.0000E+00  0.0000E+00  0.0000E+00  0.0000E+00
    -35.493  0.0000E+00  0.0000E+00  0.0000E+00  0.0000E+00  0.0000E+00  0.0000E+00  0.0000E+00  0.0000E+00  0.0000E+00  0.0000E+00  0.0000E+00  0.0000E+00  0.0000E+00  0.0000E+00  0.0000E+00  0.0000E+00  0.0000E+00  0.0000E+00
    -35.306  0.0000E+00  0.0000E+00  0.0000E+00  0.0000E+00  0.0000E+00  0.0000E+00  0.0000E+00  0.0000E+00  0.0000E+00  0.0000E+00  0.0000E+00  0.0000E+00  0.0000E+00  0.0000E+00  0.0000E+00  0.0000E+00  0.0000E+00  0.0000E+00
    -35.120  0.0000E+00  0.0000E+00  0.0000E+00  0.0000E+00  0.0000E+00  0.0000E+00  0.0000E+00  0.0000E+00  0.0000E+00  0.0000E+00  0.0000E+00  0.0000E+00  0.0000E+00  0.0000E+00  0.0000E+00  0.0000E+00  0.0000E+00  0.0000E+00
    -34.934  0.0000E+00  0.0000E+00  0.0000E+00  0.0000E+00  0.0000E+00  0.0000E+00  0.0000E+00  0.0000E+00  0.0000E+00  0.0000E+00  0.0000E+00  0.0000E+00  0.0000E+00  0.0000E+00  0.0000E+00  0.0000E+00  0.0000E+00  0.0000E+00
    -34.748  0.0000E+00  0.0000E+00  0.0000E+00  0.0000E+00  0.0000E+00  0.0000E+00  0.0000E+00  0.0000E+00  0.0000E+00  0.0000E+00  0.0000E+00  0.0000E+00  0.0000E+00  0.0000E+00  0.0000E+00  0.0000E+00  0.0000E+00  0.0000E+00
    -34.561  0.0000E+00  0.0000E+00  0.0000E+00  0.0000E+00  0.0000E+00  0.0000E+00  0.0000E+00  0.0000E+00  0.0000E+00  0.0000E+00  0.0000E+00  0.0000E+00  0.0000E+00  0.0000E+00  0.0000E+00  0.0000E+00  0.0000E+00  0.0000E+00
    -34.375  0.0000E+00  0.0000E+00  0.0000E+00  0.0000E+00  0.0000E+00  0.0000E+00  0.0000E+00  0.0000E+00  0.0000E+00  0.0000E+00  0.0000E+00  0.0000E+00  0.0000E+00  0.0000E+00  0.0000E+00  0.0000E+00  0.0000E+00  0.0000E+00
    -34.189  0.0000E+00  0.0000E+00  0.0000E+00  0.0000E+00  0.0000E+00  0.0000E+00  0.0000E+00  0.0000E+00  0.0000E+00  0.0000E+00  0.0000E+00  0.0000E+00  0.0000E+00  0.0000E+00  0.0000E+00  0.0000E+00  0.0000E+00  0.0000E+00
    -34.002  0.0000E+00  0.0000E+00  0.0000E+00  0.0000E+00  0.0000E+00  0.0000E+00  0.0000E+00  0.0000E+00  0.0000E+00  0.0000E+00  0.0000E+00  0.0000E+00  0.0000E+00  0.0000E+00  0.0000E+00  0.0000E+00  0.0000E+00  0.0000E+00
    -33.816  0.0000E+00  0.0000E+00  0.0000E+00  0.0000E+00  0.0000E+00  0.0000E+00  0.0000E+00  0.0000E+00  0.0000E+00  0.0000E+00  0.0000E+00  0.0000E+00  0.0000E+00  0.0000E+00  0.0000E+00  0.0000E+00  0.0000E+00  0.0000E+00
    -33.630  0.0000E+00  0.0000E+00  0.0000E+00  0.0000E+00  0.0000E+00  0.0000E+00  0.0000E+00  0.0000E+00  0.0000E+00  0.0000E+00  0.0000E+00  0.0000E+00  0.0000E+00  0.0000E+00  0.0000E+00  0.0000E+00  0.0000E+00  0.0000E+00
    -33.444  0.0000E+00  0.0000E+00  0.0000E+00  0.0000E+00  0.0000E+00  0.0000E+00  0.0000E+00  0.0000E+00  0.0000E+00  0.0000E+00  0.0000E+00  0.0000E+00  0.0000E+00  0.0000E+00  0.0000E+00  0.0000E+00  0.0000E+00  0.0000E+00
    -33.257  0.0000E+00  0.0000E+00  0.0000E+00  0.0000E+00  0.0000E+00  0.0000E+00  0.0000E+00  0.0000E+00  0.0000E+00  0.0000E+00  0.0000E+00  0.0000E+00  0.0000E+00  0.0000E+00  0.0000E+00  0.0000E+00  0.0000E+00  0.0000E+00
    -33.071  0.0000E+00  0.0000E+00  0.0000E+00  0.0000E+00  0.0000E+00  0.0000E+00  0.0000E+00  0.0000E+00  0.0000E+00  0.0000E+00  0.0000E+00  0.0000E+00  0.0000E+00  0.0000E+00  0.0000E+00  0.0000E+00  0.0000E+00  0.0000E+00