   9   9   1   0
  0.2488524E+02  0.3679062E-09  0.3679063E-09  0.1910642E-08  0.5000000E-15
  1.000000000000000E-004
  CAR 
 unknown system                          
     12.43006923    -43.63959699  301      0.28310170      1.00000000
    -43.640  0.0000E+00  0.0000E+00  0.0000E+00  0.0000E+00
    -43.453  0.0000E+00  0.0000E+00  0.0000E+00  0.0000E+00
    -43.266  0.0000E+00  0.0000E+00  0.0000E+00  0.0000E+00
    -43.079  0.0000E+00  0.0000E+00  0.0000E+00  0.0000E+00
    -42.892  0.0000E+00  0.0000E+00  0.0000E+00  0.0000E+00
    -42.705  0.0000E+00  0.0000E+00  0.0000E+00  0.0000E+00
    -42.518  0.0000E+00  0.0000E+00  0.0000E+00  0.0000E+00
    -42.331  0.0000E+00  0.0000E+00  0.0000E+00  0.0000E+00
    -42.144  0.0000E+00  0.0000E+00  0.0000E+00  0.0000E+00
    -41.958  0.0000E+00  0.0000E+00  0.0000E+00  0.0000E+00
    -41.771  0.0000E+00  0.0000E+00  0.0000E+00  0.0000E+00
    -41.584  0.2291E-02  0.2290E-02  0.4282E-03  0.4280E-03
    -41.397  0.9378E-01  0.9374E-01  0.1796E-01  0.1795E-01
    -41.210  0.3634E+01  0.3632E+01  0.6971E+00  0.6968E+00
    -41.023  0.3377E+02  0.3376E+02  0.7008E+01  0.7007E+01
    -40.836  0.1033E+02  0.1034E+02  0.8939E+01  0.8939E+01
    -40.649  0.0000E+00  0.0000E+00  0.9000E+01  0.9000E+01
    -40.462  0.0000E+00  0.0000E+00  0.9000E+01  0.9000E+01
    -40.275  0.0000E+00  0.0000E+00  0.9000E+01  0.9000E+01
    -40.089  0.0000E+00  0.0000E+00  0.9000E+01  0.9000E+01
    -39.902  0.0000E+00  0.0000E+00  0.9000E+01  0.9000E+01
    -39.715  0.0000E+00  0.0000E+00  0.9000E+01  0.9000E+01
    -39.528  0.0000E+00  0.0000E+00  0.9000E+01  0.9000E+01
    -39.341  0.0000E+00  0.0000E+00  0.9000E+01  0.9000E+01
    -39.154  0.0000E+00  0.0000E+00  0.9000E+01  0.9000E+01
    -38.967  0.0000E+00  0.0000E+00  0.9000E+01  0.9000E+01
    -38.780  0.0000E+00  0.0000E+00  0.9000E+01  0.9000E+01
    -38.593  0.0000E+00  0.0000E+00  0.9000E+01  0.9000E+01
    -38.406  0.0000E+00  0.0000E+00  0.9000E+01  0.9000E+01
    -38.220  0.0000E+00  0.0000E+00  0.9000E+01  0.9000E+01
    -38.033  0.0000E+00  0.0000E+00  0.9000E+01  0.9000E+01
    -37.846  0.0000E+00  0.0000E+00  0.9000E+01  0.9000E+01
    -37.659  0.0000E+00  0.0000E+00  0.9000E+01  0.9000E+01
    -37.472  0.0000E+00  0.0000E+00  0.9000E+01  0.9000E+01
    -37.285  0.0000E+00  0.0000E+00  0.9000E+01  0.9000E+01
    -37.098  0.0000E+00  0.0000E+00  0.9000E+01  0.9000E+01
    -36.911  0.0000E+00  0.0000E+00  0.9000E+01  0.9000E+01
    -36.724  0.0000E+00  0.0000E+00  0.9000E+01  0.9000E+01
    -36.537  0.0000E+00  0.0000E+00  0.9000E+01  0.9000E+01
    -36.351  0.0000E+00  0.0000E+00  0.9000E+01  0.9000E+01
    -36.164  0.0000E+00  0.0000E+00  0.9000E+01  0.9000E+01
    -35.977  0.0000E+00  0.0000E+00  0.9000E+01  0.9000E+01
    -35.790  0.0000E+00  0.0000E+00  0.9000E+01  0.9000E+01
    -35.603  0.0000E+00  0.0000E+00  0.9000E+01  0.9000E+01
    -35.416  0.0000E+00  0.0000E+00  0.9000E+01  0.9000E+01
    -35.229  0.0000E+00  0.0000E+00  0.9000E+01  0.9000E+01
    -35.042  0.0000E+00  0.0000E+00  0.9000E+01  0.9000E+01
    -34.855  0.0000E+00  0.0000E+00  0.9000E+01  0.9000E+01
    -34.668  0.0000E+00  0.0000E+00  0.9000E+01  0.9000E+01
    -34.482  0.0000E+00  0.0000E+00  0.9000E+01  0.9000E+01
    -34.295  0.0000E+00  0.0000E+00  0.9000E+01  0.9000E+01
    -34.108  0.0000E+00  0.0000E+00  0.9000E+01  0.9000E+01
    -33.921  0.0000E+00  0.0000E+00  0.9000E+01  0.9000E+01
    -33.734  0.0000E+00  0.0000E+00  0.9000E+01  0.9000E+01
    -33.547  0.0000E+00  0.0000E+00  0.9000E+01  0.9000E+01
    -33.360  0.0000E+00  0.0000E+00  0.9000E+01  0.9000E+01
    -33.173  0.0000E+00  0.0000E+00  0.9000E+01  0.9000E+01
    -32.986  0.0000E+00  0.0000E+00  0.9000E+01  0.9000E+01
    -32.799  0.0000E+00  0.0000E+00  0.9000E+01  0.9000E+01
    -32.613  0.0000E+00  0.0000E+00  0.9000E+01  0.9000E+01
    -32.426  0.0000E+00  0.0000E+00  0.9000E+01  0.9000E+01
    -32.239  0.0000E+00  0.0000E+00  0.9000E+01  0.9000E+01
    -32.052  0.0000E+00  0.0000E+00  0.9000E+01  0.9000E+01
    -31.865  0.0000E+00  0.0000E+00  0.9000E+01  0.9000E+01
    -31.678  0.0000E+00  0.0000E+00  0.9000E+01  0.9000E+01
    -31.491  0.0000E+00  0.0000E+00  0.9000E+01  0.9000E+01
    -31.304  0.0000E+00  0.0000E+00  0.9000E+01  0.9000E+01
    -31.117  0.0000E+00  0.0000E+00  0.9000E+01  0.9000E+01
    -30.930  0.0000E+00  0.0000E+00  0.9000E+01  0.9000E+01
    -30.744  0.0000E+00  0.0000E+00  0.9000E+01  0.9000E+01
    -30.557  0.0000E+00  0.0000E+00  0.9000E+01  0.9000E+01
    -30.370  0.0000E+00  0.0000E+00  0.9000E+01  0.9000E+01
    -30.183  0.0000E+00  0.0000E+00  0.9000E+01  0.9000E+01
    -29.996  0.0000E+00  0.0000E+00  0.9000E+01  0.9000E+01
    -29.809  0.0000E+00  0.0000E+00  0.9000E+01  0.9000E+01
    -29.622  0.0000E+00  0.0000E+00  0.9000E+01  0.9000E+01
    -29.435  0.0000E+00  0.0000E+00  0.9000E+01  0.9000E+01
    -29.248  0.0000E+00  0.0000E+00  0.9000E+01  0.9000E+01
    -29.061  0.0000E+00  0.0000E+00  0.9000E+01  0.9000E+01
    -28.875  0.0000E+00  0.0000E+00  0.9000E+01  0.9000E+01
    -28.688  0.0000E+00  0.0000E+00  0.9000E+01  0.9000E+01
    -28.501  0.0000E+00  0.0000E+00  0.9000E+01  0.9000E+01
    -28.314  0.0000E+00  0.0000E+00  0.9000E+01  0.9000E+01
    -28.127  0.0000E+00  0.0000E+00  0.9000E+01  0.9000E+01
    -27.940  0.0000E+00  0.0000E+00  0.9000E+01  0.9000E+01
    -27.753  0.0000E+00  0.0000E+00  0.9000E+01  0.9000E+01
    -27.566  0.0000E+00  0.0000E+00  0.9000E+01  0.9000E+01
    -27.379  0.0000E+00  0.0000E+00  0.9000E+01  0.9000E+01
    -27.192  0.0000E+00  0.0000E+00  0.9000E+01  0.9000E+01
    -27.006  0.0000E+00  0.0000E+00  0.9000E+01  0.9000E+01
    -26.819  0.0000E+00  0.0000E+00  0.9000E+01  0.9000E+01
    -26.632  0.0000E+00  0.0000E+00  0.9000E+01  0.9000E+01
    -26.445  0.0000E+00  0.0000E+00  0.9000E+01  0.9000E+01
    -26.258  0.0000E+00  0.0000E+00  0.9000E+01  0.9000E+01
    -26.071  0.0000E+00  0.0000E+00  0.9000E+01  0.9000E+01
    -25.884  0.0000E+00  0.0000E+00  0.9000E+01  0.9000E+01
    -25.697  0.0000E+00  0.0000E+00  0.9000E+01  0.9000E+01
    -25.510  0.0000E+00  0.0000E+00  0.9000E+01  0.9000E+01
    -25.324  0.0000E+00  0.0000E+00  0.9000E+01  0.9000E+01
    -25.137  0.0000E+00  0.0000E+00  0.9000E+01  0.9000E+01
    -24.950  0.0000E+00  0.0000E+00  0.9000E+01  0.9000E+01
    -24.763  0.0000E+00  0.0000E+00  0.9000E+01  0.9000E+01
    -24.576  0.0000E+00  0.0000E+00  0.9000E+01  0.9000E+01
    -24.389  0.0000E+00  0.0000E+00  0.9000E+01  0.9000E+01
    -24.202  0.0000E+00  0.0000E+00  0.9000E+01  0.9000E+01
    -24.015  0.0000E+00  0.0000E+00  0.9000E+01  0.9000E+01
    -23.828  0.0000E+00  0.0000E+00  0.9000E+01  0.9000E+01
    -23.641  0.0000E+00  0.0000E+00  0.9000E+01  0.9000E+01
    -23.455  0.0000E+00  0.0000E+00  0.9000E+01  0.9000E+01
    -23.268  0.0000E+00  0.0000E+00  0.9000E+01  0.9000E+01
    -23.081  0.0000E+00  0.0000E+00  0.9000E+01  0.9000E+01
    -22.894  0.0000E+00  0.0000E+00  0.9000E+01  0.9000E+01
    -22.707  0.0000E+00  0.0000E+00  0.9000E+01  0.9000E+01
    -22.520  0.0000E+00  0.0000E+00  0.9000E+01  0.9000E+01
    -22.333  0.0000E+00  0.0000E+00  0.9000E+01  0.9000E+01
    -22.146  0.0000E+00  0.0000E+00  0.9000E+01  0.9000E+01
    -21.959  0.0000E+00  0.0000E+00  0.9000E+01  0.9000E+01
    -21.772  0.0000E+00  0.0000E+00  0.9000E+01  0.9000E+01
    -21.586  0.0000E+00  0.0000E+00  0.9000E+01  0.9000E+01
    -21.399  0.0000E+00  0.0000E+00  0.9000E+01  0.9000E+01
    -21.212  0.0000E+00  0.0000E+00  0.9000E+01  0.9000E+01
    -21.025  0.0000E+00  0.0000E+00  0.9000E+01  0.9000E+01
    -20.838  0.0000E+00  0.0000E+00  0.9000E+01  0.9000E+01
    -20.651  0.0000E+00  0.0000E+00  0.9000E+01  0.9000E+01
    -20.464  0.0000E+00  0.0000E+00  0.9000E+01  0.9000E+01
    -20.277  0.0000E+00  0.0000E+00  0.9000E+01  0.9000E+01
    -20.090  0.0000E+00  0.0000E+00  0.9000E+01  0.9000E+01
    -19.903  0.0000E+00  0.0000E+00  0.9000E+01  0.9000E+01
    -19.717  0.0000E+00  0.0000E+00  0.9000E+01  0.9000E+01
    -19.530  0.0000E+00  0.0000E+00  0.9000E+01  0.9000E+01
    -19.343  0.0000E+00  0.0000E+00  0.9000E+01  0.9000E+01
    -19.156  0.0000E+00  0.0000E+00  0.9000E+01  0.9000E+01
    -18.969  0.0000E+00  0.0000E+00  0.9000E+01  0.9000E+01
    -18.782  0.0000E+00  0.0000E+00  0.9000E+01  0.9000E+01
    -18.595  0.0000E+00  0.0000E+00  0.9000E+01  0.9000E+01
    -18.408  0.0000E+00  0.0000E+00  0.9000E+01  0.9000E+01
    -18.221  0.0000E+00  0.0000E+00  0.9000E+01  0.9000E+01
    -18.034  0.0000E+00  0.0000E+00  0.9000E+01  0.9000E+01
    -17.848  0.0000E+00  0.0000E+00  0.9000E+01  0.9000E+01
    -17.661  0.0000E+00  0.0000E+00  0.9000E+01  0.9000E+01
    -17.474  0.0000E+00  0.0000E+00  0.9000E+01  0.9000E+01
    -17.287  0.0000E+00  0.0000E+00  0.9000E+01  0.9000E+01
    -17.100  0.0000E+00  0.0000E+00  0.9000E+01  0.9000E+01
    -16.913  0.0000E+00  0.0000E+00  0.9000E+01  0.9000E+01
    -16.726  0.0000E+00  0.0000E+00  0.9000E+01  0.9000E+01
    -16.539  0.0000E+00  0.0000E+00  0.9000E+01  0.9000E+01
    -16.352  0.0000E+00  0.0000E+00  0.9000E+01  0.9000E+01
    -16.165  0.0000E+00  0.0000E+00  0.9000E+01  0.9000E+01
    -15.979  0.0000E+00  0.0000E+00  0.9000E+01  0.9000E+01
    -15.792  0.0000E+00  0.0000E+00  0.9000E+01  0.9000E+01
    -15.605  0.0000E+00  0.0000E+00  0.9000E+01  0.9000E+01
    -15.418  0.0000E+00  0.0000E+00  0.9000E+01  0.9000E+01
    -15.231  0.0000E+00  0.0000E+00  0.9000E+01  0.9000E+01
    -15.044  0.0000E+00  0.0000E+00  0.9000E+01  0.9000E+01
    -14.857  0.2896E-04  0.2939E-04  0.9000E+01  0.9000E+01
    -14.670  0.1578E-02  0.1601E-02  0.9000E+01  0.9000E+01
    -14.483  0.6173E-01  0.6259E-01  0.9012E+01  0.9012E+01
    -14.296  0.1003E+01  0.1011E+01  0.9199E+01  0.9201E+01
    -14.110  0.2359E+01  0.2364E+01  0.9640E+01  0.9643E+01
    -13.923  0.3338E+01  0.3341E+01  0.1026E+02  0.1027E+02
    -13.736  0.6157E+01  0.6179E+01  0.1142E+02  0.1142E+02
    -13.549  0.1222E+02  0.1224E+02  0.1370E+02  0.1371E+02
    -13.362  0.6604E+01  0.6545E+01  0.1494E+02  0.1494E+02
    -13.175  0.2641E+00  0.2596E+00  0.1500E+02  0.1500E+02
    -12.988  0.0000E+00  0.0000E+00  0.1500E+02  0.1500E+02
    -12.801  0.0000E+00  0.0000E+00  0.1500E+02  0.1500E+02
    -12.614  0.0000E+00  0.0000E+00  0.1500E+02  0.1500E+02
    -12.427  0.0000E+00  0.0000E+00  0.1500E+02  0.1500E+02
    -12.241  0.0000E+00  0.0000E+00  0.1500E+02  0.1500E+02
    -12.054  0.0000E+00  0.0000E+00  0.1500E+02  0.1500E+02
    -11.867  0.0000E+00  0.0000E+00  0.1500E+02  0.1500E+02
    -11.680  0.0000E+00  0.0000E+00  0.1500E+02  0.1500E+02
    -11.493  0.0000E+00  0.0000E+00  0.1500E+02  0.1500E+02
    -11.306  0.0000E+00  0.0000E+00  0.1500E+02  0.1500E+02
    -11.119  0.0000E+00  0.0000E+00  0.1500E+02  0.1500E+02
    -10.932  0.0000E+00  0.0000E+00  0.1500E+02  0.1500E+02
    -10.745  0.0000E+00  0.0000E+00  0.1500E+02  0.1500E+02
    -10.558  0.0000E+00  0.0000E+00  0.1500E+02  0.1500E+02
    -10.372  0.0000E+00  0.0000E+00  0.1500E+02  0.1500E+02
    -10.185  0.0000E+00  0.0000E+00  0.1500E+02  0.1500E+02
     -9.998  0.0000E+00  0.0000E+00  0.1500E+02  0.1500E+02
     -9.811  0.0000E+00  0.0000E+00  0.1500E+02  0.1500E+02
     -9.624  0.0000E+00  0.0000E+00  0.1500E+02  0.1500E+02
     -9.437  0.0000E+00  0.0000E+00  0.1500E+02  0.1500E+02
     -9.250  0.0000E+00  0.0000E+00  0.1500E+02  0.1500E+02
     -9.063  0.0000E+00  0.0000E+00  0.1500E+02  0.1500E+02
     -8.876  0.0000E+00  0.0000E+00  0.1500E+02  0.1500E+02
     -8.690  0.0000E+00  0.0000E+00  0.1500E+02  0.1500E+02
     -8.503  0.0000E+00  0.0000E+00  0.1500E+02  0.1500E+02
     -8.316  0.0000E+00  0.0000E+00  0.1500E+02  0.1500E+02
     -8.129  0.0000E+00  0.0000E+00  0.1500E+02  0.1500E+02
     -7.942  0.0000E+00  0.0000E+00  0.1500E+02  0.1500E+02
     -7.755  0.0000E+00  0.0000E+00  0.1500E+02  0.1500E+02
     -7.568  0.0000E+00  0.0000E+00  0.1500E+02  0.1500E+02
     -7.381  0.0000E+00  0.0000E+00  0.1500E+02  0.1500E+02
     -7.194  0.0000E+00  0.0000E+00  0.1500E+02  0.1500E+02
     -7.007  0.0000E+00  0.0000E+00  0.1500E+02  0.1500E+02
     -6.821  0.0000E+00  0.0000E+00  0.1500E+02  0.1500E+02
     -6.634  0.0000E+00  0.0000E+00  0.1500E+02  0.1500E+02
     -6.447  0.0000E+00  0.0000E+00  0.1500E+02  0.1500E+02
     -6.260  0.0000E+00  0.0000E+00  0.1500E+02  0.1500E+02
     -6.073  0.0000E+00  0.0000E+00  0.1500E+02  0.1500E+02
     -5.886  0.0000E+00  0.0000E+00  0.1500E+02  0.1500E+02
     -5.699  0.0000E+00  0.0000E+00  0.1500E+02  0.1500E+02
     -5.512  0.0000E+00  0.0000E+00  0.1500E+02  0.1500E+02
     -5.325  0.0000E+00  0.0000E+00  0.1500E+02  0.1500E+02
     -5.138  0.0000E+00  0.0000E+00  0.1500E+02  0.1500E+02
     -4.952  0.0000E+00  0.0000E+00  0.1500E+02  0.1500E+02
     -4.765  0.0000E+00  0.0000E+00  0.1500E+02  0.1500E+02
     -4.578  0.0000E+00  0.0000E+00  0.1500E+02  0.1500E+02
     -4.391  0.2597E-03  0.2588E-03  0.1500E+02  0.1500E+02
     -4.204  0.1066E-01  0.1063E-01  0.1500E+02  0.1500E+02
     -4.017  0.3802E+00  0.3791E+00  0.1507E+02  0.1507E+02
     -3.830  0.2721E+01  0.2720E+01  0.1558E+02  0.1558E+02
     -3.643  0.3511E+01  0.3509E+01  0.1624E+02  0.1624E+02
     -3.456  0.5120E+01  0.5121E+01  0.1720E+02  0.1720E+02
     -3.269  0.7284E+01  0.7285E+01  0.1856E+02  0.1856E+02
     -3.083  0.5915E+01  0.5918E+01  0.1967E+02  0.1967E+02
     -2.896  0.3289E+01  0.3289E+01  0.2029E+02  0.2029E+02
     -2.709  0.1664E+01  0.1664E+01  0.2061E+02  0.2061E+02
     -2.522  0.2019E+01  0.2021E+01  0.2099E+02  0.2099E+02
     -2.335  0.4679E+01  0.4681E+01  0.2186E+02  0.2186E+02
     -2.148  0.4522E+01  0.4525E+01  0.2271E+02  0.2271E+02
     -1.961  0.6837E+01  0.6844E+01  0.2399E+02  0.2399E+02
     -1.774  0.7535E+01  0.7531E+01  0.2540E+02  0.2540E+02
     -1.587  0.5330E+01  0.5341E+01  0.2640E+02  0.2641E+02
     -1.400  0.1098E+02  0.1098E+02  0.2847E+02  0.2847E+02
     -1.214  0.1103E+02  0.1104E+02  0.3053E+02  0.3054E+02
     -1.027  0.9603E+01  0.9590E+01  0.3233E+02  0.3234E+02
     -0.840  0.3121E+01  0.3108E+01  0.3292E+02  0.3292E+02
     -0.653  0.3698E+00  0.3664E+00  0.3300E+02  0.3300E+02
     -0.466  0.0000E+00  0.0000E+00  0.3300E+02  0.3300E+02
     -0.279  0.0000E+00  0.0000E+00  0.3300E+02  0.3300E+02
     -0.092  0.0000E+00  0.0000E+00  0.3300E+02  0.3300E+02
      0.095  0.0000E+00  0.0000E+00  0.3300E+02  0.3300E+02
      0.282  0.0000E+00  0.0000E+00  0.3300E+02  0.3300E+02
      0.469  0.0000E+00  0.0000E+00  0.3300E+02  0.3300E+02
      0.655  0.0000E+00  0.0000E+00  0.3300E+02  0.3300E+02
      0.842  0.0000E+00  0.0000E+00  0.3300E+02  0.3300E+02
      1.029  0.0000E+00  0.0000E+00  0.3300E+02  0.3300E+02
      1.216  0.0000E+00  0.0000E+00  0.3300E+02  0.3300E+02
      1.403  0.0000E+00  0.0000E+00  0.3300E+02  0.3300E+02
      1.590  0.0000E+00  0.0000E+00  0.3300E+02  0.3300E+02
      1.777  0.0000E+00  0.0000E+00  0.3300E+02  0.3300E+02
      1.964  0.0000E+00  0.0000E+00  0.3300E+02  0.3300E+02
      2.151  0.0000E+00  0.0000E+00  0.3300E+02  0.3300E+02
      2.338  0.0000E+00  0.0000E+00  0.3300E+02  0.3300E+02
      2.524  0.0000E+00  0.0000E+00  0.3300E+02  0.3300E+02
      2.711  0.0000E+00  0.0000E+00  0.3300E+02  0.3300E+02
      2.898  0.0000E+00  0.0000E+00  0.3300E+02  0.3300E+02
      3.085  0.0000E+00  0.0000E+00  0.3300E+02  0.3300E+02
      3.272  0.0000E+00  0.0000E+00  0.3300E+02  0.3300E+02
      3.459  0.0000E+00  0.0000E+00  0.3300E+02  0.3300E+02
      3.646  0.0000E+00  0.0000E+00  0.3300E+02  0.3300E+02
      3.833  0.0000E+00  0.0000E+00  0.3300E+02  0.3300E+02
      4.020  0.0000E+00  0.0000E+00  0.3300E+02  0.3300E+02
      4.207  0.7796E-05  0.7924E-05  0.3300E+02  0.3300E+02
      4.393  0.3188E-03  0.3240E-03  0.3300E+02  0.3300E+02
      4.580  0.1190E-01  0.1207E-01  0.3300E+02  0.3300E+02
      4.767  0.7963E-01  0.7969E-01  0.3302E+02  0.3302E+02
      4.954  0.1723E-01  0.1701E-01  0.3302E+02  0.3302E+02
      5.141  0.1511E-01  0.1521E-01  0.3302E+02  0.3302E+02
      5.328  0.3208E+00  0.3227E+00  0.3308E+02  0.3308E+02
      5.515  0.5017E+00  0.5001E+00  0.3318E+02  0.3318E+02
      5.702  0.1046E+00  0.1041E+00  0.3320E+02  0.3320E+02
      5.889  0.1153E+01  0.1152E+01  0.3341E+02  0.3341E+02
      6.076  0.1451E+01  0.1445E+01  0.3368E+02  0.3368E+02
      6.262  0.1646E+01  0.1647E+01  0.3399E+02  0.3399E+02
      6.449  0.3174E+01  0.3169E+01  0.3459E+02  0.3458E+02
      6.636  0.4001E+01  0.3999E+01  0.3534E+02  0.3533E+02
      6.823  0.3107E+01  0.3103E+01  0.3592E+02  0.3591E+02
      7.010  0.3628E+01  0.3628E+01  0.3660E+02  0.3659E+02
      7.197  0.1600E+01  0.1601E+01  0.3690E+02  0.3689E+02
      7.384  0.1931E+01  0.1921E+01  0.3726E+02  0.3726E+02
      7.571  0.2248E+01  0.2205E+01  0.3768E+02  0.3767E+02
      7.758  0.3368E+01  0.3378E+01  0.3831E+02  0.3830E+02
      7.944  0.3151E+01  0.3158E+01  0.3890E+02  0.3889E+02
      8.131  0.4134E+01  0.4065E+01  0.3968E+02  0.3966E+02
      8.318  0.5386E+01  0.5378E+01  0.4069E+02  0.4066E+02
      8.505  0.2903E+01  0.2808E+01  0.4123E+02  0.4119E+02
      8.692  0.3054E+01  0.3465E+01  0.4180E+02  0.4184E+02
      8.879  0.1883E+01  0.2197E+01  0.4216E+02  0.4225E+02
      9.066  0.2340E+01  0.2017E+01  0.4260E+02  0.4263E+02
      9.253  0.2218E+01  0.2373E+01  0.4301E+02  0.4308E+02
      9.440  0.3241E+01  0.3623E+01  0.4362E+02  0.4375E+02
      9.627  0.1270E+01  0.6400E+00  0.4386E+02  0.4387E+02
      9.813  0.4726E+00  0.1314E+00  0.4395E+02  0.4390E+02
     10.000  0.2561E+00  0.4657E+00  0.4400E+02  0.4399E+02
     10.187  0.1028E-01  0.5412E-01  0.4400E+02  0.4400E+02
     10.374  0.0000E+00  0.0000E+00  0.4400E+02  0.4400E+02
     10.561  0.0000E+00  0.0000E+00  0.4400E+02  0.4400E+02
     10.748  0.0000E+00  0.0000E+00  0.4400E+02  0.4400E+02
     10.935  0.0000E+00  0.0000E+00  0.4400E+02  0.4400E+02
     11.122  0.0000E+00  0.0000E+00  0.4400E+02  0.4400E+02
     11.309  0.0000E+00  0.0000E+00  0.4400E+02  0.4400E+02
     11.496  0.0000E+00  0.0000E+00  0.4400E+02  0.4400E+02
     11.682  0.0000E+00  0.0000E+00  0.4400E+02  0.4400E+02
     11.869  0.0000E+00  0.0000E+00  0.4400E+02  0.4400E+02
     12.056  0.0000E+00  0.0000E+00  0.4400E+02  0.4400E+02
     12.243  0.0000E+00  0.0000E+00  0.4400E+02  0.4400E+02
     12.430  0.0000E+00  0.0000E+00  0.4400E+02  0.4400E+02
     12.43006923    -43.63959699  301      0.28310170      1.00000000
    -43.640  0.0000E+00  0.0000E+00  0.0000E+00  0.0000E+00  0.0000E+00  0.0000E+00  0.0000E+00  0.0000E+00  0.0000E+00  0.0000E+00  0.0000E+00  0.0000E+00  0.0000E+00  0.0000E+00  0.0000E+00  0.0000E+00  0.0000E+00  0.0000E+00
    -43.453  0.0000E+00  0.0000E+00  0.0000E+00  0.0000E+00  0.0000E+00  0.0000E+00  0.0000E+00  0.0000E+00  0.0000E+00  0.0000E+00  0.0000E+00  0.0000E+00  0.0000E+00  0.0000E+00  0.0000E+00  0.0000E+00  0.0000E+00  0.0000E+00
    -43.266  0.0000E+00  0.0000E+00  0.0000E+00  0.0000E+00  0.0000E+00  0.0000E+00  0.0000E+00  0.0000E+00  0.0000E+00  0.0000E+00  0.0000E+00  0.0000E+00  0.0000E+00  0.0000E+00  0.0000E+00  0.0000E+00  0.0000E+00  0.0000E+00
    -43.079  0.0000E+00  0.0000E+00  0.0000E+00  0.0000E+00  0.0000E+00  0.0000E+00  0.0000E+00  0.0000E+00  0.0000E+00  0.0000E+00  0.0000E+00  0.0000E+00  0.0000E+00  0.0000E+00  0.0000E+00  0.0000E+00  0.0000E+00  0.0000E+00
    -42.892  0.0000E+00  0.0000E+00  0.0000E+00  0.0000E+00  0.0000E+00  0.0000E+00  0.0000E+00  0.0000E+00  0.0000E+00  0.0000E+00  0.0000E+00  0.0000E+00  0.0000E+00  0.0000E+00  0.0000E+00  0.0000E+00  0.0000E+00  0.0000E+00
    -42.705  0.0000E+00  0.0000E+00  0.0000E+00  0.0000E+00  0.0000E+00  0.0000E+00  0.0000E+00  0.0000E+00  0.0000E+00  0.0000E+00  0.0000E+00  0.0000E+00  0.0000E+00  0.0000E+00  0.0000E+00  0.0000E+00  0.0000E+00  0.0000E+00
    -42.518  0.0000E+00  0.0000E+00  0.0000E+00  0.0000E+00  0.0000E+00  0.0000E+00  0.0000E+00  0.0000E+00  0.0000E+00  0.0000E+00  0.0000E+00  0.0000E+00  0.0000E+00  0.0000E+00  0.0000E+00  0.0000E+00  0.0000E+00  0.0000E+00
    -42.331  0.0000E+00  0.0000E+00  0.0000E+00  0.0000E+00  0.0000E+00  0.0000E+00  0.0000E+00  0.0000E+00  0.0000E+00  0.0000E+00  0.0000E+00  0.0000E+00  0.0000E+00  0.0000E+00  0.0000E+00  0.0000E+00  0.0000E+00  0.0000E+00
    -42.144  0.0000E+00  0.0000E+00  0.0000E+00  0.0000E+00  0.0000E+00  0.0000E+00  0.0000E+00  0.0000E+00  0.0000E+00  0.0000E+00  0.0000E+00  0.0000E+00  0.0000E+00  0.0000E+00  0.0000E+00  0.0000E+00  0.0000E+00  0.0000E+00
    -41.958  0.0000E+00  0.0000E+00  0.0000E+00  0.0000E+00  0.0000E+00  0.0000E+00  0.0000E+00  0.0000E+00  0.0000E+00  0.0000E+00  0.0000E+00  0.0000E+00  0.0000E+00  0.0000E+00  0.0000E+00  0.0000E+00  0.0000E+00  0.0000E+00
    -41.771  0.0000E+00  0.0000E+00  0.0000E+00  0.0000E+00  0.0000E+00  0.0000E+00  0.0000E+00  0.0000E+00  0.0000E+00  0.0000E+00  0.0000E+00  0.0000E+00  0.0000E+00  0.0000E+00  0.0000E+00  0.0000E+00  0.0000E+00  0.0000E+00
    -41.584  0.3366E-11  0.3368E-11  0.2430E-03  0.2429E-03  0.2730E-03  0.2728E-03  0.2430E-03  0.2429E-03  0.3836E-12  0.3847E-12  0.4205E-13  0.4206E-13  0.2261E-12  0.2266E-12  0.4205E-13  0.4206E-13  0.3836E-12  0.3847E-12
    -41.397  0.1378E-09  0.1379E-09  0.9948E-02  0.9944E-02  0.1117E-01  0.1117E-01  0.9948E-02  0.9944E-02  0.1570E-10  0.1575E-10  0.1721E-11  0.1722E-11  0.9254E-11  0.9276E-11  0.1721E-11  0.1722E-11  0.1570E-10  0.1575E-10
    -41.210  0.5352E-08  0.5355E-08  0.3867E+00  0.3866E+00  0.4304E+00  0.4302E+00  0.3867E+00  0.3866E+00  0.6103E-09  0.6121E-09  0.6639E-10  0.6641E-10  0.3593E-09  0.3602E-09  0.6639E-10  0.6641E-10  0.6103E-09  0.6121E-09
    -41.023  0.5082E-07  0.5087E-07  0.3708E+01  0.3708E+01  0.3770E+01  0.3770E+01  0.3708E+01  0.3708E+01  0.5832E-08  0.5851E-08  0.5900E-09  0.5903E-09  0.3402E-08  0.3411E-08  0.5900E-09  0.5903E-09  0.5832E-08  0.5851E-08
    -40.836  0.1592E-07  0.1594E-07  0.1175E+01  0.1175E+01  0.1073E+01  0.1074E+01  0.1175E+01  0.1175E+01  0.1840E-08  0.1847E-08  0.1711E-09  0.1712E-09  0.1061E-08  0.1065E-08  0.1711E-09  0.1712E-09  0.1840E-08  0.1847E-08
    -40.649  0.0000E+00  0.0000E+00  0.0000E+00  0.0000E+00  0.0000E+00  0.0000E+00  0.0000E+00  0.0000E+00  0.0000E+00  0.0000E+00  0.0000E+00  0.0000E+00  0.0000E+00  0.0000E+00  0.0000E+00  0.0000E+00  0.0000E+00  0.0000E+00
    -40.462  0.0000E+00  0.0000E+00  0.0000E+00  0.0000E+00  0.0000E+00  0.0000E+00  0.0000E+00  0.0000E+00  0.0000E+00  0.0000E+00  0.0000E+00  0.0000E+00  0.0000E+00  0.0000E+00  0.0000E+00  0.0000E+00  0.0000E+00  0.0000E+00
    -40.275  0.0000E+00  0.0000E+00  0.0000E+00  0.0000E+00  0.0000E+00  0.0000E+00  0.0000E+00  0.0000E+00  0.0000E+00  0.0000E+00  0.0000E+00  0.0000E+00  0.0000E+00  0.0000E+00  0.0000E+00  0.0000E+00  0.0000E+00  0.0000E+00
    -40.089  0.0000E+00  0.0000E+00  0.0000E+00  0.0000E+00  0.0000E+00  0.0000E+00  0.0000E+00  0.0000E+00  0.0000E+00  0.0000E+00  0.0000E+00  0.0000E+00  0.0000E+00  0.0000E+00  0.0000E+00  0.0000E+00  0.0000E+00  0.0000E+00
    -39.902  0.0000E+00  0.0000E+00  0.0000E+00  0.0000E+00  0.0000E+00  0.0000E+00  0.0000E+00  0.0000E+00  0.0000E+00  0.0000E+00  0.0000E+00  0.0000E+00  0.0000E+00  0.0000E+00  0.0000E+00  0.0000E+00  0.0000E+00  0.0000E+00
    -39.715  0.0000E+00  0.0000E+00  0.0000E+00  0.0000E+00  0.0000E+00  0.0000E+00  0.0000E+00  0.0000E+00  0.0000E+00  0.0000E+00  0.0000E+00  0.0000E+00  0.0000E+00  0.0000E+00  0.0000E+00  0.0000E+00  0.0000E+00  0.0000E+00
    -39.528  0.0000E+00  0.0000E+00  0.0000E+00  0.0000E+00  0.0000E+00  0.0000E+00  0.0000E+00  0.0000E+00  0.0000E+00  0.0000E+00  0.0000E+00  0.0000E+00  0.0000E+00  0.0000E+00  0.0000E+00  0.0000E+00  0.0000E+00  0.0000E+00
    -39.341  0.0000E+00  0.0000E+00  0.0000E+00  0.0000E+00  0.0000E+00  0.0000E+00  0.0000E+00  0.0000E+00  0.0000E+00  0.0000E+00  0.0000E+00  0.0000E+00  0.0000E+00  0.0000E+00  0.0000E+00  0.0000E+00  0.0000E+00  0.0000E+00
    -39.154  0.0000E+00  0.0000E+00  0.0000E+00  0.0000E+00  0.0000E+00  0.0000E+00  0.0000E+00  0.0000E+00  0.0000E+00  0.0000E+00  0.0000E+00  0.0000E+00  0.0000E+00  0.0000E+00  0.0000E+00  0.0000E+00  0.0000E+00  0.0000E+00
    -38.967  0.0000E+00  0.0000E+00  0.0000E+00  0.0000E+00  0.0000E+00  0.0000E+00  0.0000E+00  0.0000E+00  0.0000E+00  0.0000E+00  0.0000E+00  0.0000E+00  0.0000E+00  0.0000E+00  0.0000E+00  0.0000E+00  0.0000E+00  0.0000E+00
    -38.780  0.0000E+00  0.0000E+00  0.0000E+00  0.0000E+00  0.0000E+00  0.0000E+00  0.0000E+00  0.0000E+00  0.0000E+00  0.0000E+00  0.0000E+00  0.0000E+00  0.0000E+00  0.0000E+00  0.0000E+00  0.0000E+00  0.0000E+00  0.0000E+00
    -38.593  0.0000E+00  0.0000E+00  0.0000E+00  0.0000E+00  0.0000E+00  0.0000E+00  0.0000E+00  0.0000E+00  0.0000E+00  0.0000E+00  0.0000E+00  0.0000E+00  0.0000E+00  0.0000E+00  0.0000E+00  0.0000E+00  0.0000E+00  0.0000E+00
    -38.406  0.0000E+00  0.0000E+00  0.0000E+00  0.0000E+00  0.0000E+00  0.0000E+00  0.0000E+00  0.0000E+00  0.0000E+00  0.0000E+00  0.0000E+00  0.0000E+00  0.0000E+00  0.0000E+00  0.0000E+00  0.0000E+00  0.0000E+00  0.0000E+00
    -38.220  0.0000E+00  0.0000E+00  0.0000E+00  0.0000E+00  0.0000E+00  0.0000E+00  0.0000E+00  0.0000E+00  0.0000E+00  0.0000E+00  0.0000E+00  0.0000E+00  0.0000E+00  0.0000E+00  0.0000E+00  0.0000E+00  0.0000E+00  0.0000E+00
    -38.033  0.0000E+00  0.0000E+00  0.0000E+00  0.0000E+00  0.0000E+00  0.0000E+00  0.0000E+00  0.0000E+00  0.0000E+00  0.0000E+00  0.0000E+00  0.0000E+00  0.0000E+00  0.0000E+00  0.0000E+00  0.0000E+00  0.0000E+00  0.0000E+00
    -37.846  0.0000E+00  0.0000E+00  0.0000E+00  0.0000E+00  0.0000E+00  0.0000E+00  0.0000E+00  0.0000E+00  0.0000E+00  0.0000E+00  0.0000E+00  0.0000E+00  0.0000E+00  0.0000E+00  0.0000E+00  0.0000E+00  0.0000E+00  0.0000E+00
    -37.659  0.0000E+00  0.0000E+00  0.0000E+00  0.0000E+00  0.0000E+00  0.0000E+00  0.0000E+00  0.0000E+00  0.0000E+00  0.0000E+00  0.0000E+00  0.0000E+00  0.0000E+00  0.0000E+00  0.0000E+00  0.0000E+00  0.0000E+00  0.0000E+00
    -37.472  0.0000E+00  0.0000E+00  0.0000E+00  0.0000E+00  0.0000E+00  0.0000E+00  0.0000E+00  0.0000E+00  0.0000E+00  0.0000E+00  0.0000E+00  0.0000E+00  0.0000E+00  0.0000E+00  0.0000E+00  0.0000E+00  0.0000E+00  0.0000E+00
    -37.285  0.0000E+00  0.0000E+00  0.0000E+00  0.0000E+00  0.0000E+00  0.0000E+00  0.0000E+00  0.0000E+00  0.0000E+00  0.0000E+00  0.0000E+00  0.0000E+00  0.0000E+00  0.0000E+00  0.0000E+00  0.0000E+00  0.0000E+00  0.0000E+00
    -37.098  0.0000E+00  0.0000E+00  0.0000E+00  0.0000E+00  0.0000E+00  0.0000E+00  0.0000E+00  0.0000E+00  0.0000E+00  0.0000E+00  0.0000E+00  0.0000E+00  0.0000E+00  0.0000E+00  0.0000E+00  0.0000E+00  0.0000E+00  0.0000E+00
    -36.911  0.0000E+00  0.0000E+00  0.0000E+00  0.0000E+00  0.0000E+00  0.0000E+00  0.0000E+00  0.0000E+00  0.0000E+00  0.0000E+00  0.0000E+00  0.0000E+00  0.0000E+00  0.0000E+00  0.0000E+00  0.0000E+00  0.0000E+00  0.0000E+00
    -36.724  0.0000E+00  0.0000E+00  0.0000E+00  0.0000E+00  0.0000E+00  0.0000E+00  0.0000E+00  0.0000E+00  0.0000E+00  0.0000E+00  0.0000E+00  0.0000E+00  0.0000E+00  0.0000E+00  0.0000E+00  0.0000E+00  0.0000E+00  0.0000E+00
    -36.537  0.0000E+00  0.0000E+00  0.0000E+00  0.0000E+00  0.0000E+00  0.0000E+00  0.0000E+00  0.0000E+00  0.0000E+00  0.0000E+00  0.0000E+00  0.0000E+00  0.0000E+00  0.0000E+00  0.0000E+00  0.0000E+00  0.0000E+00  0.0000E+00
    -36.351  0.0000E+00  0.0000E+00  0.0000E+00  0.0000E+00  0.0000E+00  0.0000E+00  0.0000E+00  0.0000E+00  0.0000E+00  0.0000E+00  0.0000E+00  0.0000E+00  0.0000E+00  0.0000E+00  0.0000E+00  0.0000E+00  0.0000E+00  0.0000E+00
    -36.164  0.0000E+00  0.0000E+00  0.0000E+00  0.0000E+00  0.0000E+00  0.0000E+00  0.0000E+00  0.0000E+00  0.0000E+00  0.0000E+00  0.0000E+00  0.0000E+00  0.0000E+00  0.0000E+00  0.0000E+00  0.0000E+00  0.0000E+00  0.0000E+00
    -35.977  0.0000E+00  0.0000E+00  0.0000E+00  0.0000E+00  0.0000E+00  0.0000E+00  0.0000E+00  0.0000E+00  0.0000E+00  0.0000E+00  0.0000E+00  0.0000E+00  0.0000E+00  0.0000E+00  0.0000E+00  0.0000E+00  0.0000E+00  0.0000E+00
    -35.790  0.0000E+00  0.0000E+00  0.0000E+00  0.0000E+00  0.0000E+00  0.0000E+00  0.0000E+00  0.0000E+00  0.0000E+00  0.0000E+00  0.0000E+00  0.0000E+00  0.0000E+00  0.0000E+00  0.0000E+00  0.0000E+00  0.0000E+00  0.0000E+00
    -35.603  0.0000E+00  0.0000E+00  0.0000E+00  0.0000E+00  0.0000E+00  0.0000E+00  0.0000E+00  0.0000E+00  0.0000E+00  0.0000E+00  0.0000E+00  0.0000E+00  0.0000E+00  0.0000E+00  0.0000E+00  0.0000E+00  0.0000E+00  0.0000E+00
    -35.416  0.0000E+00  0.0000E+00  0.0000E+00  0.0000E+00  0.0000E+00  0.0000E+00  0.0000E+00  0.0000E+00  0.0000E+00  0.0000E+00  0.0000E+00  0.0000E+00  0.0000E+00  0.0000E+00  0.0000E+00  0.0000E+00  0.0000E+00  0.0000E+00
    -35.229  0.0000E+00  0.0000E+00  0.0000E+00  0.0000E+00  0.0000E+00  0.0000E+00  0.0000E+00  0.0000E+00  0.0000E+00  0.0000E+00  0.0000E+00  0.0000E+00  0.0000E+00  0.0000E+00  0.0000E+00  0.0000E+00  0.0000E+00  0.0000E+00
    -35.042  0.0000E+00  0.0000E+00  0.0000E+00  0.0000E+00  0.0000E+00  0.0000E+00  0.0000E+00  0.0000E+00  0.0000E+00  0.0000E+00  0.0000E+00  0.0000E+00  0.0000E+00  0.0000E+00  0.0000E+00  0.0000E+00  0.0000E+00  0.0000E+00
    -34.855  0.0000E+00  0.0000E+00  0.0000E+00  0.0000E+00  0.0000E+00  0.0000E+00  0.0000E+00  0.0000E+00  0.0000E+00  0.0000E+00  0.0000E+00  0.0000E+00  0.0000E+00  0.0000E+00  0.0000E+00  0.0000E+00  0.0000E+00  0.0000E+00
    -34.668  0.0000E+00  0.0000E+00  0.0000E+00  0.0000E+00  0.0000E+00  0.0000E+00  0.0000E+00  0.0000E+00  0.0000E+00  0.0000E+00  0.0000E+00  0.0000E+00  0.0000E+00  0.0000E+00  0.0000E+00  0.0000E+00  0.0000E+00  0.0000E+00
    -34.482  0.0000E+00  0.0000E+00  0.0000E+00  0.0000E+00  0.0000E+00  0.0000E+00  0.0000E+00  0.0000E+00  0.0000E+00  0.0000E+00  0.0000E+00  0.0000E+00  0.0000E+00  0.0000E+00  0.0000E+00  0.0000E+00  0.0000E+00  0.0000E+00
    -34.295  0.0000E+00  0.0000E+00  0.0000E+00  0.0000E+00  0.0000E+00  0.0000E+00  0.0000E+00  0.0000E+00  0.0000E+00  0.0000E+00  0.0000E+00  0.0000E+00  0.0000E+00  0.0000E+00  0.0000E+00  0.0000E+00  0.0000E+00  0.0000E+00