   9   9   1   0
  0.2880777E+02  0.3863015E-09  0.3863016E-09  0.2006174E-08  0.5000000E-15
  1.000000000000000E-004
  CAR 
 unknown system                          
     11.09406351    -45.06613601  301     -0.51091522      1.00000000
    -45.066  0.0000E+00  0.0000E+00  0.0000E+00  0.0000E+00
    -44.879  0.0000E+00  0.0000E+00  0.0000E+00  0.0000E+00
    -44.692  0.0000E+00  0.0000E+00  0.0000E+00  0.0000E+00
    -44.505  0.0000E+00  0.0000E+00  0.0000E+00  0.0000E+00
    -44.317  0.0000E+00  0.0000E+00  0.0000E+00  0.0000E+00
    -44.130  0.0000E+00  0.0000E+00  0.0000E+00  0.0000E+00
    -43.943  0.0000E+00  0.0000E+00  0.0000E+00  0.0000E+00
    -43.756  0.0000E+00  0.0000E+00  0.0000E+00  0.0000E+00
    -43.569  0.0000E+00  0.0000E+00  0.0000E+00  0.0000E+00
    -43.381  0.0000E+00  0.0000E+00  0.0000E+00  0.0000E+00
    -43.194  0.0000E+00  0.0000E+00  0.0000E+00  0.0000E+00
    -43.007  0.2165E-02  0.2158E-02  0.4053E-03  0.4039E-03
    -42.820  0.8917E-01  0.8888E-01  0.1710E-01  0.1704E-01
    -42.633  0.3487E+01  0.3476E+01  0.6698E+00  0.6677E+00
    -42.445  0.3352E+02  0.3350E+02  0.6945E+01  0.6939E+01
    -42.258  0.1064E+02  0.1067E+02  0.8937E+01  0.8937E+01
    -42.071  0.0000E+00  0.0000E+00  0.9000E+01  0.9000E+01
    -41.884  0.0000E+00  0.0000E+00  0.9000E+01  0.9000E+01
    -41.697  0.0000E+00  0.0000E+00  0.9000E+01  0.9000E+01
    -41.509  0.0000E+00  0.0000E+00  0.9000E+01  0.9000E+01
    -41.322  0.0000E+00  0.0000E+00  0.9000E+01  0.9000E+01
    -41.135  0.0000E+00  0.0000E+00  0.9000E+01  0.9000E+01
    -40.948  0.0000E+00  0.0000E+00  0.9000E+01  0.9000E+01
    -40.761  0.0000E+00  0.0000E+00  0.9000E+01  0.9000E+01
    -40.573  0.0000E+00  0.0000E+00  0.9000E+01  0.9000E+01
    -40.386  0.0000E+00  0.0000E+00  0.9000E+01  0.9000E+01
    -40.199  0.0000E+00  0.0000E+00  0.9000E+01  0.9000E+01
    -40.012  0.0000E+00  0.0000E+00  0.9000E+01  0.9000E+01
    -39.825  0.0000E+00  0.0000E+00  0.9000E+01  0.9000E+01
    -39.637  0.0000E+00  0.0000E+00  0.9000E+01  0.9000E+01
    -39.450  0.0000E+00  0.0000E+00  0.9000E+01  0.9000E+01
    -39.263  0.0000E+00  0.0000E+00  0.9000E+01  0.9000E+01
    -39.076  0.0000E+00  0.0000E+00  0.9000E+01  0.9000E+01
    -38.889  0.0000E+00  0.0000E+00  0.9000E+01  0.9000E+01
    -38.701  0.0000E+00  0.0000E+00  0.9000E+01  0.9000E+01
    -38.514  0.0000E+00  0.0000E+00  0.9000E+01  0.9000E+01
    -38.327  0.0000E+00  0.0000E+00  0.9000E+01  0.9000E+01
    -38.140  0.0000E+00  0.0000E+00  0.9000E+01  0.9000E+01
    -37.953  0.0000E+00  0.0000E+00  0.9000E+01  0.9000E+01
    -37.765  0.0000E+00  0.0000E+00  0.9000E+01  0.9000E+01
    -37.578  0.0000E+00  0.0000E+00  0.9000E+01  0.9000E+01
    -37.391  0.0000E+00  0.0000E+00  0.9000E+01  0.9000E+01
    -37.204  0.0000E+00  0.0000E+00  0.9000E+01  0.9000E+01
    -37.017  0.0000E+00  0.0000E+00  0.9000E+01  0.9000E+01
    -36.829  0.0000E+00  0.0000E+00  0.9000E+01  0.9000E+01
    -36.642  0.0000E+00  0.0000E+00  0.9000E+01  0.9000E+01
    -36.455  0.0000E+00  0.0000E+00  0.9000E+01  0.9000E+01
    -36.268  0.0000E+00  0.0000E+00  0.9000E+01  0.9000E+01
    -36.081  0.0000E+00  0.0000E+00  0.9000E+01  0.9000E+01
    -35.893  0.0000E+00  0.0000E+00  0.9000E+01  0.9000E+01
    -35.706  0.0000E+00  0.0000E+00  0.9000E+01  0.9000E+01
    -35.519  0.0000E+00  0.0000E+00  0.9000E+01  0.9000E+01
    -35.332  0.0000E+00  0.0000E+00  0.9000E+01  0.9000E+01
    -35.145  0.0000E+00  0.0000E+00  0.9000E+01  0.9000E+01
    -34.957  0.0000E+00  0.0000E+00  0.9000E+01  0.9000E+01
    -34.770  0.0000E+00  0.0000E+00  0.9000E+01  0.9000E+01
    -34.583  0.0000E+00  0.0000E+00  0.9000E+01  0.9000E+01
    -34.396  0.0000E+00  0.0000E+00  0.9000E+01  0.9000E+01
    -34.208  0.0000E+00  0.0000E+00  0.9000E+01  0.9000E+01
    -34.021  0.0000E+00  0.0000E+00  0.9000E+01  0.9000E+01
    -33.834  0.0000E+00  0.0000E+00  0.9000E+01  0.9000E+01
    -33.647  0.0000E+00  0.0000E+00  0.9000E+01  0.9000E+01
    -33.460  0.0000E+00  0.0000E+00  0.9000E+01  0.9000E+01
    -33.272  0.0000E+00  0.0000E+00  0.9000E+01  0.9000E+01
    -33.085  0.0000E+00  0.0000E+00  0.9000E+01  0.9000E+01
    -32.898  0.0000E+00  0.0000E+00  0.9000E+01  0.9000E+01
    -32.711  0.0000E+00  0.0000E+00  0.9000E+01  0.9000E+01
    -32.524  0.0000E+00  0.0000E+00  0.9000E+01  0.9000E+01
    -32.336  0.0000E+00  0.0000E+00  0.9000E+01  0.9000E+01
    -32.149  0.0000E+00  0.0000E+00  0.9000E+01  0.9000E+01
    -31.962  0.0000E+00  0.0000E+00  0.9000E+01  0.9000E+01
    -31.775  0.0000E+00  0.0000E+00  0.9000E+01  0.9000E+01
    -31.588  0.0000E+00  0.0000E+00  0.9000E+01  0.9000E+01
    -31.400  0.0000E+00  0.0000E+00  0.9000E+01  0.9000E+01
    -31.213  0.0000E+00  0.0000E+00  0.9000E+01  0.9000E+01
    -31.026  0.0000E+00  0.0000E+00  0.9000E+01  0.9000E+01
    -30.839  0.0000E+00  0.0000E+00  0.9000E+01  0.9000E+01
    -30.652  0.0000E+00  0.0000E+00  0.9000E+01  0.9000E+01
    -30.464  0.0000E+00  0.0000E+00  0.9000E+01  0.9000E+01
    -30.277  0.0000E+00  0.0000E+00  0.9000E+01  0.9000E+01
    -30.090  0.0000E+00  0.0000E+00  0.9000E+01  0.9000E+01
    -29.903  0.0000E+00  0.0000E+00  0.9000E+01  0.9000E+01
    -29.716  0.0000E+00  0.0000E+00  0.9000E+01  0.9000E+01
    -29.528  0.0000E+00  0.0000E+00  0.9000E+01  0.9000E+01
    -29.341  0.0000E+00  0.0000E+00  0.9000E+01  0.9000E+01
    -29.154  0.0000E+00  0.0000E+00  0.9000E+01  0.9000E+01
    -28.967  0.0000E+00  0.0000E+00  0.9000E+01  0.9000E+01
    -28.780  0.0000E+00  0.0000E+00  0.9000E+01  0.9000E+01
    -28.592  0.0000E+00  0.0000E+00  0.9000E+01  0.9000E+01
    -28.405  0.0000E+00  0.0000E+00  0.9000E+01  0.9000E+01
    -28.218  0.0000E+00  0.0000E+00  0.9000E+01  0.9000E+01
    -28.031  0.0000E+00  0.0000E+00  0.9000E+01  0.9000E+01
    -27.844  0.0000E+00  0.0000E+00  0.9000E+01  0.9000E+01
    -27.656  0.0000E+00  0.0000E+00  0.9000E+01  0.9000E+01
    -27.469  0.0000E+00  0.0000E+00  0.9000E+01  0.9000E+01
    -27.282  0.0000E+00  0.0000E+00  0.9000E+01  0.9000E+01
    -27.095  0.0000E+00  0.0000E+00  0.9000E+01  0.9000E+01
    -26.908  0.0000E+00  0.0000E+00  0.9000E+01  0.9000E+01
    -26.720  0.0000E+00  0.0000E+00  0.9000E+01  0.9000E+01
    -26.533  0.0000E+00  0.0000E+00  0.9000E+01  0.9000E+01
    -26.346  0.0000E+00  0.0000E+00  0.9000E+01  0.9000E+01
    -26.159  0.0000E+00  0.0000E+00  0.9000E+01  0.9000E+01
    -25.972  0.0000E+00  0.0000E+00  0.9000E+01  0.9000E+01
    -25.784  0.0000E+00  0.0000E+00  0.9000E+01  0.9000E+01
    -25.597  0.0000E+00  0.0000E+00  0.9000E+01  0.9000E+01
    -25.410  0.0000E+00  0.0000E+00  0.9000E+01  0.9000E+01
    -25.223  0.0000E+00  0.0000E+00  0.9000E+01  0.9000E+01
    -25.036  0.0000E+00  0.0000E+00  0.9000E+01  0.9000E+01
    -24.848  0.0000E+00  0.0000E+00  0.9000E+01  0.9000E+01
    -24.661  0.0000E+00  0.0000E+00  0.9000E+01  0.9000E+01
    -24.474  0.0000E+00  0.0000E+00  0.9000E+01  0.9000E+01
    -24.287  0.0000E+00  0.0000E+00  0.9000E+01  0.9000E+01
    -24.100  0.0000E+00  0.0000E+00  0.9000E+01  0.9000E+01
    -23.912  0.0000E+00  0.0000E+00  0.9000E+01  0.9000E+01
    -23.725  0.0000E+00  0.0000E+00  0.9000E+01  0.9000E+01
    -23.538  0.0000E+00  0.0000E+00  0.9000E+01  0.9000E+01
    -23.351  0.0000E+00  0.0000E+00  0.9000E+01  0.9000E+01
    -23.164  0.0000E+00  0.0000E+00  0.9000E+01  0.9000E+01
    -22.976  0.0000E+00  0.0000E+00  0.9000E+01  0.9000E+01
    -22.789  0.0000E+00  0.0000E+00  0.9000E+01  0.9000E+01
    -22.602  0.0000E+00  0.0000E+00  0.9000E+01  0.9000E+01
    -22.415  0.0000E+00  0.0000E+00  0.9000E+01  0.9000E+01
    -22.228  0.0000E+00  0.0000E+00  0.9000E+01  0.9000E+01
    -22.040  0.0000E+00  0.0000E+00  0.9000E+01  0.9000E+01
    -21.853  0.0000E+00  0.0000E+00  0.9000E+01  0.9000E+01
    -21.666  0.0000E+00  0.0000E+00  0.9000E+01  0.9000E+01
    -21.479  0.0000E+00  0.0000E+00  0.9000E+01  0.9000E+01
    -21.292  0.0000E+00  0.0000E+00  0.9000E+01  0.9000E+01
    -21.104  0.0000E+00  0.0000E+00  0.9000E+01  0.9000E+01
    -20.917  0.0000E+00  0.0000E+00  0.9000E+01  0.9000E+01
    -20.730  0.0000E+00  0.0000E+00  0.9000E+01  0.9000E+01
    -20.543  0.0000E+00  0.0000E+00  0.9000E+01  0.9000E+01
    -20.356  0.0000E+00  0.0000E+00  0.9000E+01  0.9000E+01
    -20.168  0.0000E+00  0.0000E+00  0.9000E+01  0.9000E+01
    -19.981  0.0000E+00  0.0000E+00  0.9000E+01  0.9000E+01
    -19.794  0.0000E+00  0.0000E+00  0.9000E+01  0.9000E+01
    -19.607  0.0000E+00  0.0000E+00  0.9000E+01  0.9000E+01
    -19.420  0.0000E+00  0.0000E+00  0.9000E+01  0.9000E+01
    -19.232  0.0000E+00  0.0000E+00  0.9000E+01  0.9000E+01
    -19.045  0.0000E+00  0.0000E+00  0.9000E+01  0.9000E+01
    -18.858  0.0000E+00  0.0000E+00  0.9000E+01  0.9000E+01
    -18.671  0.0000E+00  0.0000E+00  0.9000E+01  0.9000E+01
    -18.484  0.0000E+00  0.0000E+00  0.9000E+01  0.9000E+01
    -18.296  0.0000E+00  0.0000E+00  0.9000E+01  0.9000E+01
    -18.109  0.0000E+00  0.0000E+00  0.9000E+01  0.9000E+01
    -17.922  0.0000E+00  0.0000E+00  0.9000E+01  0.9000E+01
    -17.735  0.0000E+00  0.0000E+00  0.9000E+01  0.9000E+01
    -17.548  0.0000E+00  0.0000E+00  0.9000E+01  0.9000E+01
    -17.360  0.0000E+00  0.0000E+00  0.9000E+01  0.9000E+01
    -17.173  0.0000E+00  0.0000E+00  0.9000E+01  0.9000E+01
    -16.986  0.0000E+00  0.0000E+00  0.9000E+01  0.9000E+01
    -16.799  0.0000E+00  0.0000E+00  0.9000E+01  0.9000E+01
    -16.612  0.0000E+00  0.0000E+00  0.9000E+01  0.9000E+01
    -16.424  0.0000E+00  0.0000E+00  0.9000E+01  0.9000E+01
    -16.237  0.0000E+00  0.0000E+00  0.9000E+01  0.9000E+01
    -16.050  0.0000E+00  0.0000E+00  0.9000E+01  0.9000E+01
    -15.863  0.0000E+00  0.0000E+00  0.9000E+01  0.9000E+01
    -15.676  0.0000E+00  0.0000E+00  0.9000E+01  0.9000E+01
    -15.488  0.0000E+00  0.0000E+00  0.9000E+01  0.9000E+01
    -15.301  0.4466E-04  0.4527E-04  0.9000E+01  0.9000E+01
    -15.114  0.1979E-02  0.2007E-02  0.9000E+01  0.9000E+01
    -14.927  0.7983E-01  0.8088E-01  0.9015E+01  0.9016E+01
    -14.740  0.1412E+01  0.1422E+01  0.9280E+01  0.9282E+01
    -14.552  0.4080E+01  0.4090E+01  0.1004E+02  0.1005E+02
    -14.365  0.8605E+01  0.8640E+01  0.1165E+02  0.1167E+02
    -14.178  0.1487E+02  0.1485E+02  0.1444E+02  0.1445E+02
    -13.991  0.2851E+01  0.2815E+01  0.1498E+02  0.1498E+02
    -13.804  0.0000E+00  0.0000E+00  0.1500E+02  0.1500E+02
    -13.616  0.0000E+00  0.0000E+00  0.1500E+02  0.1500E+02
    -13.429  0.0000E+00  0.0000E+00  0.1500E+02  0.1500E+02
    -13.242  0.0000E+00  0.0000E+00  0.1500E+02  0.1500E+02
    -13.055  0.0000E+00  0.0000E+00  0.1500E+02  0.1500E+02
    -12.868  0.0000E+00  0.0000E+00  0.1500E+02  0.1500E+02
    -12.680  0.0000E+00  0.0000E+00  0.1500E+02  0.1500E+02
    -12.493  0.0000E+00  0.0000E+00  0.1500E+02  0.1500E+02
    -12.306  0.0000E+00  0.0000E+00  0.1500E+02  0.1500E+02
    -12.119  0.0000E+00  0.0000E+00  0.1500E+02  0.1500E+02
    -11.932  0.0000E+00  0.0000E+00  0.1500E+02  0.1500E+02
    -11.744  0.0000E+00  0.0000E+00  0.1500E+02  0.1500E+02
    -11.557  0.0000E+00  0.0000E+00  0.1500E+02  0.1500E+02
    -11.370  0.0000E+00  0.0000E+00  0.1500E+02  0.1500E+02
    -11.183  0.0000E+00  0.0000E+00  0.1500E+02  0.1500E+02
    -10.996  0.0000E+00  0.0000E+00  0.1500E+02  0.1500E+02
    -10.808  0.0000E+00  0.0000E+00  0.1500E+02  0.1500E+02
    -10.621  0.0000E+00  0.0000E+00  0.1500E+02  0.1500E+02
    -10.434  0.0000E+00  0.0000E+00  0.1500E+02  0.1500E+02
    -10.247  0.0000E+00  0.0000E+00  0.1500E+02  0.1500E+02
    -10.060  0.0000E+00  0.0000E+00  0.1500E+02  0.1500E+02
     -9.872  0.0000E+00  0.0000E+00  0.1500E+02  0.1500E+02
     -9.685  0.0000E+00  0.0000E+00  0.1500E+02  0.1500E+02
     -9.498  0.0000E+00  0.0000E+00  0.1500E+02  0.1500E+02
     -9.311  0.0000E+00  0.0000E+00  0.1500E+02  0.1500E+02
     -9.124  0.0000E+00  0.0000E+00  0.1500E+02  0.1500E+02
     -8.936  0.0000E+00  0.0000E+00  0.1500E+02  0.1500E+02
     -8.749  0.0000E+00  0.0000E+00  0.1500E+02  0.1500E+02
     -8.562  0.0000E+00  0.0000E+00  0.1500E+02  0.1500E+02
     -8.375  0.0000E+00  0.0000E+00  0.1500E+02  0.1500E+02
     -8.188  0.0000E+00  0.0000E+00  0.1500E+02  0.1500E+02
     -8.000  0.0000E+00  0.0000E+00  0.1500E+02  0.1500E+02
     -7.813  0.0000E+00  0.0000E+00  0.1500E+02  0.1500E+02
     -7.626  0.0000E+00  0.0000E+00  0.1500E+02  0.1500E+02
     -7.439  0.0000E+00  0.0000E+00  0.1500E+02  0.1500E+02
     -7.252  0.0000E+00  0.0000E+00  0.1500E+02  0.1500E+02
     -7.064  0.0000E+00  0.0000E+00  0.1500E+02  0.1500E+02
     -6.877  0.0000E+00  0.0000E+00  0.1500E+02  0.1500E+02
     -6.690  0.0000E+00  0.0000E+00  0.1500E+02  0.1500E+02
     -6.503  0.0000E+00  0.0000E+00  0.1500E+02  0.1500E+02
     -6.316  0.0000E+00  0.0000E+00  0.1500E+02  0.1500E+02
     -6.128  0.0000E+00  0.0000E+00  0.1500E+02  0.1500E+02
     -5.941  0.0000E+00  0.0000E+00  0.1500E+02  0.1500E+02
     -5.754  0.0000E+00  0.0000E+00  0.1500E+02  0.1500E+02
     -5.567  0.0000E+00  0.0000E+00  0.1500E+02  0.1500E+02
     -5.380  0.0000E+00  0.0000E+00  0.1500E+02  0.1500E+02
     -5.192  0.0000E+00  0.0000E+00  0.1500E+02  0.1500E+02
     -5.005  0.0000E+00  0.0000E+00  0.1500E+02  0.1500E+02
     -4.818  0.1223E-03  0.1217E-03  0.1500E+02  0.1500E+02
     -4.631  0.5181E-02  0.5157E-02  0.1500E+02  0.1500E+02
     -4.444  0.2039E+00  0.2030E+00  0.1504E+02  0.1504E+02
     -4.256  0.2595E+01  0.2591E+01  0.1552E+02  0.1552E+02
     -4.069  0.5163E+01  0.5160E+01  0.1649E+02  0.1649E+02
     -3.882  0.6206E+01  0.6206E+01  0.1766E+02  0.1765E+02
     -3.695  0.6209E+01  0.6215E+01  0.1883E+02  0.1883E+02
     -3.508  0.5446E+01  0.5447E+01  0.1985E+02  0.1985E+02
     -3.320  0.3423E+01  0.3423E+01  0.2049E+02  0.2049E+02
     -3.133  0.2016E+01  0.2019E+01  0.2088E+02  0.2088E+02
     -2.946  0.5378E+01  0.5380E+01  0.2188E+02  0.2189E+02
     -2.759  0.5749E+01  0.5753E+01  0.2296E+02  0.2297E+02
     -2.572  0.9293E+01  0.9297E+01  0.2471E+02  0.2471E+02
     -2.384  0.7251E+01  0.7252E+01  0.2607E+02  0.2607E+02
     -2.197  0.1222E+02  0.1223E+02  0.2836E+02  0.2837E+02
     -2.010  0.1359E+02  0.1359E+02  0.3091E+02  0.3091E+02
     -1.823  0.9363E+01  0.9332E+01  0.3267E+02  0.3267E+02
     -1.636  0.1635E+01  0.1626E+01  0.3298E+02  0.3298E+02
     -1.448  0.6261E-01  0.6197E-01  0.3300E+02  0.3300E+02
     -1.261  0.0000E+00  0.0000E+00  0.3300E+02  0.3300E+02
     -1.074  0.0000E+00  0.0000E+00  0.3300E+02  0.3300E+02
     -0.887  0.0000E+00  0.0000E+00  0.3300E+02  0.3300E+02
     -0.700  0.0000E+00  0.0000E+00  0.3300E+02  0.3300E+02
     -0.512  0.0000E+00  0.0000E+00  0.3300E+02  0.3300E+02
     -0.325  0.0000E+00  0.0000E+00  0.3300E+02  0.3300E+02
     -0.138  0.0000E+00  0.0000E+00  0.3300E+02  0.3300E+02
      0.049  0.0000E+00  0.0000E+00  0.3300E+02  0.3300E+02
      0.236  0.0000E+00  0.0000E+00  0.3300E+02  0.3300E+02
      0.424  0.0000E+00  0.0000E+00  0.3300E+02  0.3300E+02
      0.611  0.0000E+00  0.0000E+00  0.3300E+02  0.3300E+02
      0.798  0.0000E+00  0.0000E+00  0.3300E+02  0.3300E+02
      0.985  0.0000E+00  0.0000E+00  0.3300E+02  0.3300E+02
      1.172  0.0000E+00  0.0000E+00  0.3300E+02  0.3300E+02
      1.360  0.0000E+00  0.0000E+00  0.3300E+02  0.3300E+02
      1.547  0.0000E+00  0.0000E+00  0.3300E+02  0.3300E+02
      1.734  0.0000E+00  0.0000E+00  0.3300E+02  0.3300E+02
      1.921  0.0000E+00  0.0000E+00  0.3300E+02  0.3300E+02
      2.108  0.0000E+00  0.0000E+00  0.3300E+02  0.3300E+02
      2.296  0.0000E+00  0.0000E+00  0.3300E+02  0.3300E+02
      2.483  0.0000E+00  0.0000E+00  0.3300E+02  0.3300E+02
      2.670  0.3376E-04  0.3335E-04  0.3300E+02  0.3300E+02
      2.857  0.1375E-02  0.1359E-02  0.3300E+02  0.3300E+02
      3.044  0.3744E-01  0.3715E-01  0.3301E+02  0.3301E+02
      3.232  0.6624E-01  0.6649E-01  0.3302E+02  0.3302E+02
      3.419  0.2552E-01  0.2532E-01  0.3302E+02  0.3302E+02
      3.606  0.3317E+00  0.3300E+00  0.3309E+02  0.3309E+02
      3.793  0.4930E+00  0.4944E+00  0.3318E+02  0.3318E+02
      3.980  0.4025E+00  0.3996E+00  0.3325E+02  0.3325E+02
      4.168  0.8660E+00  0.8684E+00  0.3342E+02  0.3342E+02
      4.355  0.3684E+00  0.3649E+00  0.3349E+02  0.3348E+02
      4.542  0.2272E+01  0.2257E+01  0.3391E+02  0.3391E+02
      4.729  0.3893E+01  0.3897E+01  0.3464E+02  0.3464E+02
      4.916  0.3991E+01  0.3985E+01  0.3539E+02  0.3538E+02
      5.104  0.2400E+01  0.2408E+01  0.3584E+02  0.3584E+02
      5.291  0.1107E+01  0.1117E+01  0.3605E+02  0.3605E+02
      5.478  0.3631E+00  0.3578E+00  0.3612E+02  0.3612E+02
      5.665  0.1864E+01  0.1848E+01  0.3647E+02  0.3646E+02
      5.852  0.1515E+01  0.1517E+01  0.3675E+02  0.3675E+02
      6.040  0.1773E+01  0.1753E+01  0.3709E+02  0.3708E+02
      6.227  0.2689E+01  0.2637E+01  0.3759E+02  0.3757E+02
      6.414  0.2960E+01  0.2978E+01  0.3814E+02  0.3813E+02
      6.601  0.2039E+01  0.2083E+01  0.3853E+02  0.3852E+02
      6.788  0.1950E+01  0.1929E+01  0.3889E+02  0.3888E+02
      6.976  0.3970E+01  0.3675E+01  0.3964E+02  0.3957E+02
      7.163  0.6423E+01  0.6437E+01  0.4084E+02  0.4078E+02
      7.350  0.3525E+01  0.3743E+01  0.4150E+02  0.4148E+02
      7.537  0.3134E+01  0.2702E+01  0.4210E+02  0.4200E+02
      7.724  0.2137E+01  0.1878E+01  0.4250E+02  0.4235E+02
      7.912  0.1701E+01  0.2667E+01  0.4282E+02  0.4286E+02
      8.099  0.3040E+01  0.2880E+01  0.4339E+02  0.4339E+02
      8.286  0.1582E+01  0.1632E+01  0.4369E+02  0.4370E+02
      8.473  0.1033E+01  0.1136E+01  0.4388E+02  0.4392E+02
      8.660  0.5608E+00  0.4080E+00  0.4399E+02  0.4400E+02
      8.848  0.5385E-01  0.1368E-01  0.4400E+02  0.4400E+02
      9.035  0.0000E+00  0.0000E+00  0.4400E+02  0.4400E+02
      9.222  0.0000E+00  0.0000E+00  0.4400E+02  0.4400E+02
      9.409  0.0000E+00  0.0000E+00  0.4400E+02  0.4400E+02
      9.596  0.0000E+00  0.0000E+00  0.4400E+02  0.4400E+02
      9.784  0.0000E+00  0.0000E+00  0.4400E+02  0.4400E+02
      9.971  0.0000E+00  0.0000E+00  0.4400E+02  0.4400E+02
     10.158  0.0000E+00  0.0000E+00  0.4400E+02  0.4400E+02
     10.345  0.0000E+00  0.0000E+00  0.4400E+02  0.4400E+02
     10.532  0.0000E+00  0.0000E+00  0.4400E+02  0.4400E+02
     10.720  0.0000E+00  0.0000E+00  0.4400E+02  0.4400E+02
     10.907  0.0000E+00  0.0000E+00  0.4400E+02  0.4400E+02
     11.094  0.0000E+00  0.0000E+00  0.4400E+02  0.4400E+02
     11.09406351    -45.06613601  301     -0.51091522      1.00000000
    -45.066  0.0000E+00  0.0000E+00  0.0000E+00  0.0000E+00  0.0000E+00  0.0000E+00  0.0000E+00  0.0000E+00  0.0000E+00  0.0000E+00  0.0000E+00  0.0000E+00  0.0000E+00  0.0000E+00  0.0000E+00  0.0000E+00  0.0000E+00  0.0000E+00
    -44.879  0.0000E+00  0.0000E+00  0.0000E+00  0.0000E+00  0.0000E+00  0.0000E+00  0.0000E+00  0.0000E+00  0.0000E+00  0.0000E+00  0.0000E+00  0.0000E+00  0.0000E+00  0.0000E+00  0.0000E+00  0.0000E+00  0.0000E+00  0.0000E+00
    -44.692  0.0000E+00  0.0000E+00  0.0000E+00  0.0000E+00  0.0000E+00  0.0000E+00  0.0000E+00  0.0000E+00  0.0000E+00  0.0000E+00  0.0000E+00  0.0000E+00  0.0000E+00  0.0000E+00  0.0000E+00  0.0000E+00  0.0000E+00  0.0000E+00
    -44.505  0.0000E+00  0.0000E+00  0.0000E+00  0.0000E+00  0.0000E+00  0.0000E+00  0.0000E+00  0.0000E+00  0.0000E+00  0.0000E+00  0.0000E+00  0.0000E+00  0.0000E+00  0.0000E+00  0.0000E+00  0.0000E+00  0.0000E+00  0.0000E+00
    -44.317  0.0000E+00  0.0000E+00  0.0000E+00  0.0000E+00  0.0000E+00  0.0000E+00  0.0000E+00  0.0000E+00  0.0000E+00  0.0000E+00  0.0000E+00  0.0000E+00  0.0000E+00  0.0000E+00  0.0000E+00  0.0000E+00  0.0000E+00  0.0000E+00
    -44.130  0.0000E+00  0.0000E+00  0.0000E+00  0.0000E+00  0.0000E+00  0.0000E+00  0.0000E+00  0.0000E+00  0.0000E+00  0.0000E+00  0.0000E+00  0.0000E+00  0.0000E+00  0.0000E+00  0.0000E+00  0.0000E+00  0.0000E+00  0.0000E+00
    -43.943  0.0000E+00  0.0000E+00  0.0000E+00  0.0000E+00  0.0000E+00  0.0000E+00  0.0000E+00  0.0000E+00  0.0000E+00  0.0000E+00  0.0000E+00  0.0000E+00  0.0000E+00  0.0000E+00  0.0000E+00  0.0000E+00  0.0000E+00  0.0000E+00
    -43.756  0.0000E+00  0.0000E+00  0.0000E+00  0.0000E+00  0.0000E+00  0.0000E+00  0.0000E+00  0.0000E+00  0.0000E+00  0.0000E+00  0.0000E+00  0.0000E+00  0.0000E+00  0.0000E+00  0.0000E+00  0.0000E+00  0.0000E+00  0.0000E+00
    -43.569  0.0000E+00  0.0000E+00  0.0000E+00  0.0000E+00  0.0000E+00  0.0000E+00  0.0000E+00  0.0000E+00  0.0000E+00  0.0000E+00  0.0000E+00  0.0000E+00  0.0000E+00  0.0000E+00  0.0000E+00  0.0000E+00  0.0000E+00  0.0000E+00
    -43.381  0.0000E+00  0.0000E+00  0.0000E+00  0.0000E+00  0.0000E+00  0.0000E+00  0.0000E+00  0.0000E+00  0.0000E+00  0.0000E+00  0.0000E+00  0.0000E+00  0.0000E+00  0.0000E+00  0.0000E+00  0.0000E+00  0.0000E+00  0.0000E+00
    -43.194  0.0000E+00  0.0000E+00  0.0000E+00  0.0000E+00  0.0000E+00  0.0000E+00  0.0000E+00  0.0000E+00  0.0000E+00  0.0000E+00  0.0000E+00  0.0000E+00  0.0000E+00  0.0000E+00  0.0000E+00  0.0000E+00  0.0000E+00  0.0000E+00
    -43.007  0.8106E-12  0.8086E-12  0.2234E-03  0.2227E-03  0.2706E-03  0.2697E-03  0.2234E-03  0.2227E-03  0.2285E-12  0.2287E-12  0.8773E-14  0.8797E-14  0.1440E-12  0.1441E-12  0.8773E-14  0.8797E-14  0.2285E-12  0.2287E-12
    -42.820  0.3339E-10  0.3331E-10  0.9204E-02  0.9173E-02  0.1114E-01  0.1110E-01  0.9204E-02  0.9173E-02  0.9412E-11  0.9423E-11  0.3613E-12  0.3623E-12  0.5932E-11  0.5936E-11  0.3613E-12  0.3623E-12  0.9412E-11  0.9423E-11
    -42.633  0.1312E-08  0.1309E-08  0.3618E+00  0.3607E+00  0.4316E+00  0.4303E+00  0.3618E+00  0.3607E+00  0.3700E-09  0.3706E-09  0.1404E-10  0.1408E-10  0.2331E-09  0.2333E-09  0.1404E-10  0.1408E-10  0.3700E-09  0.3706E-09
    -42.445  0.1326E-07  0.1326E-07  0.3667E+01  0.3665E+01  0.3772E+01  0.3770E+01  0.3667E+01  0.3665E+01  0.3753E-08  0.3768E-08  0.1267E-09  0.1273E-09  0.2349E-08  0.2358E-08  0.1267E-09  0.1273E-09  0.3753E-08  0.3768E-08
    -42.258  0.4434E-08  0.4449E-08  0.1232E+01  0.1235E+01  0.1063E+01  0.1066E+01  0.1232E+01  0.1235E+01  0.1262E-08  0.1271E-08  0.3729E-10  0.3756E-10  0.7842E-09  0.7894E-09  0.3729E-10  0.3756E-10  0.1262E-08  0.1271E-08
    -42.071  0.0000E+00  0.0000E+00  0.0000E+00  0.0000E+00  0.0000E+00  0.0000E+00  0.0000E+00  0.0000E+00  0.0000E+00  0.0000E+00  0.0000E+00  0.0000E+00  0.0000E+00  0.0000E+00  0.0000E+00  0.0000E+00  0.0000E+00  0.0000E+00
    -41.884  0.0000E+00  0.0000E+00  0.0000E+00  0.0000E+00  0.0000E+00  0.0000E+00  0.0000E+00  0.0000E+00  0.0000E+00  0.0000E+00  0.0000E+00  0.0000E+00  0.0000E+00  0.0000E+00  0.0000E+00  0.0000E+00  0.0000E+00  0.0000E+00
    -41.697  0.0000E+00  0.0000E+00  0.0000E+00  0.0000E+00  0.0000E+00  0.0000E+00  0.0000E+00  0.0000E+00  0.0000E+00  0.0000E+00  0.0000E+00  0.0000E+00  0.0000E+00  0.0000E+00  0.0000E+00  0.0000E+00  0.0000E+00  0.0000E+00
    -41.509  0.0000E+00  0.0000E+00  0.0000E+00  0.0000E+00  0.0000E+00  0.0000E+00  0.0000E+00  0.0000E+00  0.0000E+00  0.0000E+00  0.0000E+00  0.0000E+00  0.0000E+00  0.0000E+00  0.0000E+00  0.0000E+00  0.0000E+00  0.0000E+00
    -41.322  0.0000E+00  0.0000E+00  0.0000E+00  0.0000E+00  0.0000E+00  0.0000E+00  0.0000E+00  0.0000E+00  0.0000E+00  0.0000E+00  0.0000E+00  0.0000E+00  0.0000E+00  0.0000E+00  0.0000E+00  0.0000E+00  0.0000E+00  0.0000E+00
    -41.135  0.0000E+00  0.0000E+00  0.0000E+00  0.0000E+00  0.0000E+00  0.0000E+00  0.0000E+00  0.0000E+00  0.0000E+00  0.0000E+00  0.0000E+00  0.0000E+00  0.0000E+00  0.0000E+00  0.0000E+00  0.0000E+00  0.0000E+00  0.0000E+00
    -40.948  0.0000E+00  0.0000E+00  0.0000E+00  0.0000E+00  0.0000E+00  0.0000E+00  0.0000E+00  0.0000E+00  0.0000E+00  0.0000E+00  0.0000E+00  0.0000E+00  0.0000E+00  0.0000E+00  0.0000E+00  0.0000E+00  0.0000E+00  0.0000E+00
    -40.761  0.0000E+00  0.0000E+00  0.0000E+00  0.0000E+00  0.0000E+00  0.0000E+00  0.0000E+00  0.0000E+00  0.0000E+00  0.0000E+00  0.0000E+00  0.0000E+00  0.0000E+00  0.0000E+00  0.0000E+00  0.0000E+00  0.0000E+00  0.0000E+00
    -40.573  0.0000E+00  0.0000E+00  0.0000E+00  0.0000E+00  0.0000E+00  0.0000E+00  0.0000E+00  0.0000E+00  0.0000E+00  0.0000E+00  0.0000E+00  0.0000E+00  0.0000E+00  0.0000E+00  0.0000E+00  0.0000E+00  0.0000E+00  0.0000E+00
    -40.386  0.0000E+00  0.0000E+00  0.0000E+00  0.0000E+00  0.0000E+00  0.0000E+00  0.0000E+00  0.0000E+00  0.0000E+00  0.0000E+00  0.0000E+00  0.0000E+00  0.0000E+00  0.0000E+00  0.0000E+00  0.0000E+00  0.0000E+00  0.0000E+00
    -40.199  0.0000E+00  0.0000E+00  0.0000E+00  0.0000E+00  0.0000E+00  0.0000E+00  0.0000E+00  0.0000E+00  0.0000E+00  0.0000E+00  0.0000E+00  0.0000E+00  0.0000E+00  0.0000E+00  0.0000E+00  0.0000E+00  0.0000E+00  0.0000E+00
    -40.012  0.0000E+00  0.0000E+00  0.0000E+00  0.0000E+00  0.0000E+00  0.0000E+00  0.0000E+00  0.0000E+00  0.0000E+00  0.0000E+00  0.0000E+00  0.0000E+00  0.0000E+00  0.0000E+00  0.0000E+00  0.0000E+00  0.0000E+00  0.0000E+00
    -39.825  0.0000E+00  0.0000E+00  0.0000E+00  0.0000E+00  0.0000E+00  0.0000E+00  0.0000E+00  0.0000E+00  0.0000E+00  0.0000E+00  0.0000E+00  0.0000E+00  0.0000E+00  0.0000E+00  0.0000E+00  0.0000E+00  0.0000E+00  0.0000E+00
    -39.637  0.0000E+00  0.0000E+00  0.0000E+00  0.0000E+00  0.0000E+00  0.0000E+00  0.0000E+00  0.0000E+00  0.0000E+00  0.0000E+00  0.0000E+00  0.0000E+00  0.0000E+00  0.0000E+00  0.0000E+00  0.0000E+00  0.0000E+00  0.0000E+00
    -39.450  0.0000E+00  0.0000E+00  0.0000E+00  0.0000E+00  0.0000E+00  0.0000E+00  0.0000E+00  0.0000E+00  0.0000E+00  0.0000E+00  0.0000E+00  0.0000E+00  0.0000E+00  0.0000E+00  0.0000E+00  0.0000E+00  0.0000E+00  0.0000E+00
    -39.263  0.0000E+00  0.0000E+00  0.0000E+00  0.0000E+00  0.0000E+00  0.0000E+00  0.0000E+00  0.0000E+00  0.0000E+00  0.0000E+00  0.0000E+00  0.0000E+00  0.0000E+00  0.0000E+00  0.0000E+00  0.0000E+00  0.0000E+00  0.0000E+00
    -39.076  0.0000E+00  0.0000E+00  0.0000E+00  0.0000E+00  0.0000E+00  0.0000E+00  0.0000E+00  0.0000E+00  0.0000E+00  0.0000E+00  0.0000E+00  0.0000E+00  0.0000E+00  0.0000E+00  0.0000E+00  0.0000E+00  0.0000E+00  0.0000E+00
    -38.889  0.0000E+00  0.0000E+00  0.0000E+00  0.0000E+00  0.0000E+00  0.0000E+00  0.0000E+00  0.0000E+00  0.0000E+00  0.0000E+00  0.0000E+00  0.0000E+00  0.0000E+00  0.0000E+00  0.0000E+00  0.0000E+00  0.0000E+00  0.0000E+00
    -38.701  0.0000E+00  0.0000E+00  0.0000E+00  0.0000E+00  0.0000E+00  0.0000E+00  0.0000E+00  0.0000E+00  0.0000E+00  0.0000E+00  0.0000E+00  0.0000E+00  0.0000E+00  0.0000E+00  0.0000E+00  0.0000E+00  0.0000E+00  0.0000E+00
    -38.514  0.0000E+00  0.0000E+00  0.0000E+00  0.0000E+00  0.0000E+00  0.0000E+00  0.0000E+00  0.0000E+00  0.0000E+00  0.0000E+00  0.0000E+00  0.0000E+00  0.0000E+00  0.0000E+00  0.0000E+00  0.0000E+00  0.0000E+00  0.0000E+00
    -38.327  0.0000E+00  0.0000E+00  0.0000E+00  0.0000E+00  0.0000E+00  0.0000E+00  0.0000E+00  0.0000E+00  0.0000E+00  0.0000E+00  0.0000E+00  0.0000E+00  0.0000E+00  0.0000E+00  0.0000E+00  0.0000E+00  0.0000E+00  0.0000E+00
    -38.140  0.0000E+00  0.0000E+00  0.0000E+00  0.0000E+00  0.0000E+00  0.0000E+00  0.0000E+00  0.0000E+00  0.0000E+00  0.0000E+00  0.0000E+00  0.0000E+00  0.0000E+00  0.0000E+00  0.0000E+00  0.0000E+00  0.0000E+00  0.0000E+00
    -37.953  0.0000E+00  0.0000E+00  0.0000E+00  0.0000E+00  0.0000E+00  0.0000E+00  0.0000E+00  0.0000E+00  0.0000E+00  0.0000E+00  0.0000E+00  0.0000E+00  0.0000E+00  0.0000E+00  0.0000E+00  0.0000E+00  0.0000E+00  0.0000E+00
    -37.765  0.0000E+00  0.0000E+00  0.0000E+00  0.0000E+00  0.0000E+00  0.0000E+00  0.0000E+00  0.0000E+00  0.0000E+00  0.0000E+00  0.0000E+00  0.0000E+00  0.0000E+00  0.0000E+00  0.0000E+00  0.0000E+00  0.0000E+00  0.0000E+00
    -37.578  0.0000E+00  0.0000E+00  0.0000E+00  0.0000E+00  0.0000E+00  0.0000E+00  0.0000E+00  0.0000E+00  0.0000E+00  0.0000E+00  0.0000E+00  0.0000E+00  0.0000E+00  0.0000E+00  0.0000E+00  0.0000E+00  0.0000E+00  0.0000E+00
    -37.391  0.0000E+00  0.0000E+00  0.0000E+00  0.0000E+00  0.0000E+00  0.0000E+00  0.0000E+00  0.0000E+00  0.0000E+00  0.0000E+00  0.0000E+00  0.0000E+00  0.0000E+00  0.0000E+00  0.0000E+00  0.0000E+00  0.0000E+00  0.0000E+00
    -37.204  0.0000E+00  0.0000E+00  0.0000E+00  0.0000E+00  0.0000E+00  0.0000E+00  0.0000E+00  0.0000E+00  0.0000E+00  0.0000E+00  0.0000E+00  0.0000E+00  0.0000E+00  0.0000E+00  0.0000E+00  0.0000E+00  0.0000E+00  0.0000E+00
    -37.017  0.0000E+00  0.0000E+00  0.0000E+00  0.0000E+00  0.0000E+00  0.0000E+00  0.0000E+00  0.0000E+00  0.0000E+00  0.0000E+00  0.0000E+00  0.0000E+00  0.0000E+00  0.0000E+00  0.0000E+00  0.0000E+00  0.0000E+00  0.0000E+00
    -36.829  0.0000E+00  0.0000E+00  0.0000E+00  0.0000E+00  0.0000E+00  0.0000E+00  0.0000E+00  0.0000E+00  0.0000E+00  0.0000E+00  0.0000E+00  0.0000E+00  0.0000E+00  0.0000E+00  0.0000E+00  0.0000E+00  0.0000E+00  0.0000E+00
    -36.642  0.0000E+00  0.0000E+00  0.0000E+00  0.0000E+00  0.0000E+00  0.0000E+00  0.0000E+00  0.0000E+00  0.0000E+00  0.0000E+00  0.0000E+00  0.0000E+00  0.0000E+00  0.0000E+00  0.0000E+00  0.0000E+00  0.0000E+00  0.0000E+00
    -36.455  0.0000E+00  0.0000E+00  0.0000E+00  0.0000E+00  0.0000E+00  0.0000E+00  0.0000E+00  0.0000E+00  0.0000E+00  0.0000E+00  0.0000E+00  0.0000E+00  0.0000E+00  0.0000E+00  0.0000E+00  0.0000E+00  0.0000E+00  0.0000E+00
    -36.268  0.0000E+00  0.0000E+00  0.0000E+00  0.0000E+00  0.0000E+00  0.0000E+00  0.0000E+00  0.0000E+00  0.0000E+00  0.0000E+00  0.0000E+00  0.0000E+00  0.0000E+00  0.0000E+00  0.0000E+00  0.0000E+00  0.0000E+00  0.0000E+00
    -36.081  0.0000E+00  0.0000E+00  0.0000E+00  0.0000E+00  0.0000E+00  0.0000E+00  0.0000E+00  0.0000E+00  0.0000E+00  0.0000E+00  0.0000E+00  0.0000E+00  0.0000E+00  0.0000E+00  0.0000E+00  0.0000E+00  0.0000E+00  0.0000E+00
    -35.893  0.0000E+00  0.0000E+00  0.0000E+00  0.0000E+00  0.0000E+00  0.0000E+00  0.0000E+00  0.0000E+00  0.0000E+00  0.0000E+00  0.0000E+00  0.0000E+00  0.0000E+00  0.0000E+00  0.0000E+00  0.0000E+00  0.0000E+00  0.0000E+00
    -35.706  0.0000E+00  0.0000E+00  0.0000E+00  0.0000E+00  0.0000E+00  0.0000E+00  0.0000E+00  0.0000E+00  0.0000E+00  0.0000E+00  0.0000E+00  0.0000E+00  0.0000E+00  0.0000E+00  0.0000E+00  0.0000E+00  0.0000E+00  0.0000E+00