   9   9   1   0
  0.2719277E+02  0.3789434E-09  0.3789434E-09  0.1967961E-08  0.5000000E-15
  1.000000000000000E-004
  CAR 
 unknown system                          
     11.46315415    -44.50646925  301     -0.28900922      1.00000000
    -44.506  0.0000E+00  0.0000E+00  0.0000E+00  0.0000E+00
    -44.320  0.0000E+00  0.0000E+00  0.0000E+00  0.0000E+00
    -44.133  0.0000E+00  0.0000E+00  0.0000E+00  0.0000E+00
    -43.947  0.0000E+00  0.0000E+00  0.0000E+00  0.0000E+00
    -43.760  0.0000E+00  0.0000E+00  0.0000E+00  0.0000E+00
    -43.574  0.0000E+00  0.0000E+00  0.0000E+00  0.0000E+00
    -43.387  0.0000E+00  0.0000E+00  0.0000E+00  0.0000E+00
    -43.201  0.0000E+00  0.0000E+00  0.0000E+00  0.0000E+00
    -43.014  0.0000E+00  0.0000E+00  0.0000E+00  0.0000E+00
    -42.827  0.0000E+00  0.0000E+00  0.0000E+00  0.0000E+00
    -42.641  0.0000E+00  0.0000E+00  0.0000E+00  0.0000E+00
    -42.454  0.2277E-02  0.2270E-02  0.4247E-03  0.4236E-03
    -42.268  0.9255E-01  0.9230E-01  0.1769E-01  0.1764E-01
    -42.081  0.3568E+01  0.3559E+01  0.6833E+00  0.6815E+00
    -41.895  0.3365E+02  0.3363E+02  0.6961E+01  0.6956E+01
    -41.708  0.1059E+02  0.1062E+02  0.8937E+01  0.8937E+01
    -41.521  0.0000E+00  0.0000E+00  0.9000E+01  0.9000E+01
    -41.335  0.0000E+00  0.0000E+00  0.9000E+01  0.9000E+01
    -41.148  0.0000E+00  0.0000E+00  0.9000E+01  0.9000E+01
    -40.962  0.0000E+00  0.0000E+00  0.9000E+01  0.9000E+01
    -40.775  0.0000E+00  0.0000E+00  0.9000E+01  0.9000E+01
    -40.589  0.0000E+00  0.0000E+00  0.9000E+01  0.9000E+01
    -40.402  0.0000E+00  0.0000E+00  0.9000E+01  0.9000E+01
    -40.215  0.0000E+00  0.0000E+00  0.9000E+01  0.9000E+01
    -40.029  0.0000E+00  0.0000E+00  0.9000E+01  0.9000E+01
    -39.842  0.0000E+00  0.0000E+00  0.9000E+01  0.9000E+01
    -39.656  0.0000E+00  0.0000E+00  0.9000E+01  0.9000E+01
    -39.469  0.0000E+00  0.0000E+00  0.9000E+01  0.9000E+01
    -39.283  0.0000E+00  0.0000E+00  0.9000E+01  0.9000E+01
    -39.096  0.0000E+00  0.0000E+00  0.9000E+01  0.9000E+01
    -38.910  0.0000E+00  0.0000E+00  0.9000E+01  0.9000E+01
    -38.723  0.0000E+00  0.0000E+00  0.9000E+01  0.9000E+01
    -38.536  0.0000E+00  0.0000E+00  0.9000E+01  0.9000E+01
    -38.350  0.0000E+00  0.0000E+00  0.9000E+01  0.9000E+01
    -38.163  0.0000E+00  0.0000E+00  0.9000E+01  0.9000E+01
    -37.977  0.0000E+00  0.0000E+00  0.9000E+01  0.9000E+01
    -37.790  0.0000E+00  0.0000E+00  0.9000E+01  0.9000E+01
    -37.604  0.0000E+00  0.0000E+00  0.9000E+01  0.9000E+01
    -37.417  0.0000E+00  0.0000E+00  0.9000E+01  0.9000E+01
    -37.230  0.0000E+00  0.0000E+00  0.9000E+01  0.9000E+01
    -37.044  0.0000E+00  0.0000E+00  0.9000E+01  0.9000E+01
    -36.857  0.0000E+00  0.0000E+00  0.9000E+01  0.9000E+01
    -36.671  0.0000E+00  0.0000E+00  0.9000E+01  0.9000E+01
    -36.484  0.0000E+00  0.0000E+00  0.9000E+01  0.9000E+01
    -36.298  0.0000E+00  0.0000E+00  0.9000E+01  0.9000E+01
    -36.111  0.0000E+00  0.0000E+00  0.9000E+01  0.9000E+01
    -35.924  0.0000E+00  0.0000E+00  0.9000E+01  0.9000E+01
    -35.738  0.0000E+00  0.0000E+00  0.9000E+01  0.9000E+01
    -35.551  0.0000E+00  0.0000E+00  0.9000E+01  0.9000E+01
    -35.365  0.0000E+00  0.0000E+00  0.9000E+01  0.9000E+01
    -35.178  0.0000E+00  0.0000E+00  0.9000E+01  0.9000E+01
    -34.992  0.0000E+00  0.0000E+00  0.9000E+01  0.9000E+01
    -34.805  0.0000E+00  0.0000E+00  0.9000E+01  0.9000E+01
    -34.619  0.0000E+00  0.0000E+00  0.9000E+01  0.9000E+01
    -34.432  0.0000E+00  0.0000E+00  0.9000E+01  0.9000E+01
    -34.245  0.0000E+00  0.0000E+00  0.9000E+01  0.9000E+01
    -34.059  0.0000E+00  0.0000E+00  0.9000E+01  0.9000E+01
    -33.872  0.0000E+00  0.0000E+00  0.9000E+01  0.9000E+01
    -33.686  0.0000E+00  0.0000E+00  0.9000E+01  0.9000E+01
    -33.499  0.0000E+00  0.0000E+00  0.9000E+01  0.9000E+01
    -33.313  0.0000E+00  0.0000E+00  0.9000E+01  0.9000E+01
    -33.126  0.0000E+00  0.0000E+00  0.9000E+01  0.9000E+01
    -32.939  0.0000E+00  0.0000E+00  0.9000E+01  0.9000E+01
    -32.753  0.0000E+00  0.0000E+00  0.9000E+01  0.9000E+01
    -32.566  0.0000E+00  0.0000E+00  0.9000E+01  0.9000E+01
    -32.380  0.0000E+00  0.0000E+00  0.9000E+01  0.9000E+01
    -32.193  0.0000E+00  0.0000E+00  0.9000E+01  0.9000E+01
    -32.007  0.0000E+00  0.0000E+00  0.9000E+01  0.9000E+01
    -31.820  0.0000E+00  0.0000E+00  0.9000E+01  0.9000E+01
    -31.633  0.0000E+00  0.0000E+00  0.9000E+01  0.9000E+01
    -31.447  0.0000E+00  0.0000E+00  0.9000E+01  0.9000E+01
    -31.260  0.0000E+00  0.0000E+00  0.9000E+01  0.9000E+01
    -31.074  0.0000E+00  0.0000E+00  0.9000E+01  0.9000E+01
    -30.887  0.0000E+00  0.0000E+00  0.9000E+01  0.9000E+01
    -30.701  0.0000E+00  0.0000E+00  0.9000E+01  0.9000E+01
    -30.514  0.0000E+00  0.0000E+00  0.9000E+01  0.9000E+01
    -30.327  0.0000E+00  0.0000E+00  0.9000E+01  0.9000E+01
    -30.141  0.0000E+00  0.0000E+00  0.9000E+01  0.9000E+01
    -29.954  0.0000E+00  0.0000E+00  0.9000E+01  0.9000E+01
    -29.768  0.0000E+00  0.0000E+00  0.9000E+01  0.9000E+01
    -29.581  0.0000E+00  0.0000E+00  0.9000E+01  0.9000E+01
    -29.395  0.0000E+00  0.0000E+00  0.9000E+01  0.9000E+01
    -29.208  0.0000E+00  0.0000E+00  0.9000E+01  0.9000E+01
    -29.022  0.0000E+00  0.0000E+00  0.9000E+01  0.9000E+01
    -28.835  0.0000E+00  0.0000E+00  0.9000E+01  0.9000E+01
    -28.648  0.0000E+00  0.0000E+00  0.9000E+01  0.9000E+01
    -28.462  0.0000E+00  0.0000E+00  0.9000E+01  0.9000E+01
    -28.275  0.0000E+00  0.0000E+00  0.9000E+01  0.9000E+01
    -28.089  0.0000E+00  0.0000E+00  0.9000E+01  0.9000E+01
    -27.902  0.0000E+00  0.0000E+00  0.9000E+01  0.9000E+01
    -27.716  0.0000E+00  0.0000E+00  0.9000E+01  0.9000E+01
    -27.529  0.0000E+00  0.0000E+00  0.9000E+01  0.9000E+01
    -27.342  0.0000E+00  0.0000E+00  0.9000E+01  0.9000E+01
    -27.156  0.0000E+00  0.0000E+00  0.9000E+01  0.9000E+01
    -26.969  0.0000E+00  0.0000E+00  0.9000E+01  0.9000E+01
    -26.783  0.0000E+00  0.0000E+00  0.9000E+01  0.9000E+01
    -26.596  0.0000E+00  0.0000E+00  0.9000E+01  0.9000E+01
    -26.410  0.0000E+00  0.0000E+00  0.9000E+01  0.9000E+01
    -26.223  0.0000E+00  0.0000E+00  0.9000E+01  0.9000E+01
    -26.036  0.0000E+00  0.0000E+00  0.9000E+01  0.9000E+01
    -25.850  0.0000E+00  0.0000E+00  0.9000E+01  0.9000E+01
    -25.663  0.0000E+00  0.0000E+00  0.9000E+01  0.9000E+01
    -25.477  0.0000E+00  0.0000E+00  0.9000E+01  0.9000E+01
    -25.290  0.0000E+00  0.0000E+00  0.9000E+01  0.9000E+01
    -25.104  0.0000E+00  0.0000E+00  0.9000E+01  0.9000E+01
    -24.917  0.0000E+00  0.0000E+00  0.9000E+01  0.9000E+01
    -24.731  0.0000E+00  0.0000E+00  0.9000E+01  0.9000E+01
    -24.544  0.0000E+00  0.0000E+00  0.9000E+01  0.9000E+01
    -24.357  0.0000E+00  0.0000E+00  0.9000E+01  0.9000E+01
    -24.171  0.0000E+00  0.0000E+00  0.9000E+01  0.9000E+01
    -23.984  0.0000E+00  0.0000E+00  0.9000E+01  0.9000E+01
    -23.798  0.0000E+00  0.0000E+00  0.9000E+01  0.9000E+01
    -23.611  0.0000E+00  0.0000E+00  0.9000E+01  0.9000E+01
    -23.425  0.0000E+00  0.0000E+00  0.9000E+01  0.9000E+01
    -23.238  0.0000E+00  0.0000E+00  0.9000E+01  0.9000E+01
    -23.051  0.0000E+00  0.0000E+00  0.9000E+01  0.9000E+01
    -22.865  0.0000E+00  0.0000E+00  0.9000E+01  0.9000E+01
    -22.678  0.0000E+00  0.0000E+00  0.9000E+01  0.9000E+01
    -22.492  0.0000E+00  0.0000E+00  0.9000E+01  0.9000E+01
    -22.305  0.0000E+00  0.0000E+00  0.9000E+01  0.9000E+01
    -22.119  0.0000E+00  0.0000E+00  0.9000E+01  0.9000E+01
    -21.932  0.0000E+00  0.0000E+00  0.9000E+01  0.9000E+01
    -21.745  0.0000E+00  0.0000E+00  0.9000E+01  0.9000E+01
    -21.559  0.0000E+00  0.0000E+00  0.9000E+01  0.9000E+01
    -21.372  0.0000E+00  0.0000E+00  0.9000E+01  0.9000E+01
    -21.186  0.0000E+00  0.0000E+00  0.9000E+01  0.9000E+01
    -20.999  0.0000E+00  0.0000E+00  0.9000E+01  0.9000E+01
    -20.813  0.0000E+00  0.0000E+00  0.9000E+01  0.9000E+01
    -20.626  0.0000E+00  0.0000E+00  0.9000E+01  0.9000E+01
    -20.440  0.0000E+00  0.0000E+00  0.9000E+01  0.9000E+01
    -20.253  0.0000E+00  0.0000E+00  0.9000E+01  0.9000E+01
    -20.066  0.0000E+00  0.0000E+00  0.9000E+01  0.9000E+01
    -19.880  0.0000E+00  0.0000E+00  0.9000E+01  0.9000E+01
    -19.693  0.0000E+00  0.0000E+00  0.9000E+01  0.9000E+01
    -19.507  0.0000E+00  0.0000E+00  0.9000E+01  0.9000E+01
    -19.320  0.0000E+00  0.0000E+00  0.9000E+01  0.9000E+01
    -19.134  0.0000E+00  0.0000E+00  0.9000E+01  0.9000E+01
    -18.947  0.0000E+00  0.0000E+00  0.9000E+01  0.9000E+01
    -18.760  0.0000E+00  0.0000E+00  0.9000E+01  0.9000E+01
    -18.574  0.0000E+00  0.0000E+00  0.9000E+01  0.9000E+01
    -18.387  0.0000E+00  0.0000E+00  0.9000E+01  0.9000E+01
    -18.201  0.0000E+00  0.0000E+00  0.9000E+01  0.9000E+01
    -18.014  0.0000E+00  0.0000E+00  0.9000E+01  0.9000E+01
    -17.828  0.0000E+00  0.0000E+00  0.9000E+01  0.9000E+01
    -17.641  0.0000E+00  0.0000E+00  0.9000E+01  0.9000E+01
    -17.454  0.0000E+00  0.0000E+00  0.9000E+01  0.9000E+01
    -17.268  0.0000E+00  0.0000E+00  0.9000E+01  0.9000E+01
    -17.081  0.0000E+00  0.0000E+00  0.9000E+01  0.9000E+01
    -16.895  0.0000E+00  0.0000E+00  0.9000E+01  0.9000E+01
    -16.708  0.0000E+00  0.0000E+00  0.9000E+01  0.9000E+01
    -16.522  0.0000E+00  0.0000E+00  0.9000E+01  0.9000E+01
    -16.335  0.0000E+00  0.0000E+00  0.9000E+01  0.9000E+01
    -16.149  0.0000E+00  0.0000E+00  0.9000E+01  0.9000E+01
    -15.962  0.0000E+00  0.0000E+00  0.9000E+01  0.9000E+01
    -15.775  0.0000E+00  0.0000E+00  0.9000E+01  0.9000E+01
    -15.589  0.0000E+00  0.0000E+00  0.9000E+01  0.9000E+01
    -15.402  0.0000E+00  0.0000E+00  0.9000E+01  0.9000E+01
    -15.216  0.3475E-05  0.3495E-05  0.9000E+01  0.9000E+01
    -15.029  0.3166E-03  0.3184E-03  0.9000E+01  0.9000E+01
    -14.843  0.1348E-01  0.1356E-01  0.9003E+01  0.9003E+01
    -14.656  0.4140E+00  0.4158E+00  0.9080E+01  0.9080E+01
    -14.469  0.2385E+01  0.2389E+01  0.9525E+01  0.9526E+01
    -14.283  0.4176E+01  0.4179E+01  0.1030E+02  0.1031E+02
    -14.096  0.8766E+01  0.8780E+01  0.1194E+02  0.1194E+02
    -13.910  0.1384E+02  0.1383E+02  0.1453E+02  0.1453E+02
    -13.723  0.2453E+01  0.2440E+01  0.1499E+02  0.1499E+02
    -13.537  0.0000E+00  0.0000E+00  0.1500E+02  0.1500E+02
    -13.350  0.0000E+00  0.0000E+00  0.1500E+02  0.1500E+02
    -13.163  0.0000E+00  0.0000E+00  0.1500E+02  0.1500E+02
    -12.977  0.0000E+00  0.0000E+00  0.1500E+02  0.1500E+02
    -12.790  0.0000E+00  0.0000E+00  0.1500E+02  0.1500E+02
    -12.604  0.0000E+00  0.0000E+00  0.1500E+02  0.1500E+02
    -12.417  0.0000E+00  0.0000E+00  0.1500E+02  0.1500E+02
    -12.231  0.0000E+00  0.0000E+00  0.1500E+02  0.1500E+02
    -12.044  0.0000E+00  0.0000E+00  0.1500E+02  0.1500E+02
    -11.858  0.0000E+00  0.0000E+00  0.1500E+02  0.1500E+02
    -11.671  0.0000E+00  0.0000E+00  0.1500E+02  0.1500E+02
    -11.484  0.0000E+00  0.0000E+00  0.1500E+02  0.1500E+02
    -11.298  0.0000E+00  0.0000E+00  0.1500E+02  0.1500E+02
    -11.111  0.0000E+00  0.0000E+00  0.1500E+02  0.1500E+02
    -10.925  0.0000E+00  0.0000E+00  0.1500E+02  0.1500E+02
    -10.738  0.0000E+00  0.0000E+00  0.1500E+02  0.1500E+02
    -10.552  0.0000E+00  0.0000E+00  0.1500E+02  0.1500E+02
    -10.365  0.0000E+00  0.0000E+00  0.1500E+02  0.1500E+02
    -10.178  0.0000E+00  0.0000E+00  0.1500E+02  0.1500E+02
     -9.992  0.0000E+00  0.0000E+00  0.1500E+02  0.1500E+02
     -9.805  0.0000E+00  0.0000E+00  0.1500E+02  0.1500E+02
     -9.619  0.0000E+00  0.0000E+00  0.1500E+02  0.1500E+02
     -9.432  0.0000E+00  0.0000E+00  0.1500E+02  0.1500E+02
     -9.246  0.0000E+00  0.0000E+00  0.1500E+02  0.1500E+02
     -9.059  0.0000E+00  0.0000E+00  0.1500E+02  0.1500E+02
     -8.872  0.0000E+00  0.0000E+00  0.1500E+02  0.1500E+02
     -8.686  0.0000E+00  0.0000E+00  0.1500E+02  0.1500E+02
     -8.499  0.0000E+00  0.0000E+00  0.1500E+02  0.1500E+02
     -8.313  0.0000E+00  0.0000E+00  0.1500E+02  0.1500E+02
     -8.126  0.0000E+00  0.0000E+00  0.1500E+02  0.1500E+02
     -7.940  0.0000E+00  0.0000E+00  0.1500E+02  0.1500E+02
     -7.753  0.0000E+00  0.0000E+00  0.1500E+02  0.1500E+02
     -7.567  0.0000E+00  0.0000E+00  0.1500E+02  0.1500E+02
     -7.380  0.0000E+00  0.0000E+00  0.1500E+02  0.1500E+02
     -7.193  0.0000E+00  0.0000E+00  0.1500E+02  0.1500E+02
     -7.007  0.0000E+00  0.0000E+00  0.1500E+02  0.1500E+02
     -6.820  0.0000E+00  0.0000E+00  0.1500E+02  0.1500E+02
     -6.634  0.0000E+00  0.0000E+00  0.1500E+02  0.1500E+02
     -6.447  0.0000E+00  0.0000E+00  0.1500E+02  0.1500E+02
     -6.261  0.0000E+00  0.0000E+00  0.1500E+02  0.1500E+02
     -6.074  0.0000E+00  0.0000E+00  0.1500E+02  0.1500E+02
     -5.887  0.0000E+00  0.0000E+00  0.1500E+02  0.1500E+02
     -5.701  0.0000E+00  0.0000E+00  0.1500E+02  0.1500E+02
     -5.514  0.0000E+00  0.0000E+00  0.1500E+02  0.1500E+02
     -5.328  0.0000E+00  0.0000E+00  0.1500E+02  0.1500E+02
     -5.141  0.0000E+00  0.0000E+00  0.1500E+02  0.1500E+02
     -4.955  0.0000E+00  0.0000E+00  0.1500E+02  0.1500E+02
     -4.768  0.7252E-05  0.7240E-05  0.1500E+02  0.1500E+02
     -4.581  0.7561E-03  0.7547E-03  0.1500E+02  0.1500E+02
     -4.395  0.3125E-01  0.3120E-01  0.1501E+02  0.1501E+02
     -4.208  0.9046E+00  0.9034E+00  0.1517E+02  0.1517E+02
     -4.022  0.3434E+01  0.3433E+01  0.1582E+02  0.1582E+02
     -3.835  0.5416E+01  0.5416E+01  0.1683E+02  0.1683E+02
     -3.649  0.6319E+01  0.6318E+01  0.1801E+02  0.1801E+02
     -3.462  0.6356E+01  0.6358E+01  0.1920E+02  0.1920E+02
     -3.276  0.4601E+01  0.4602E+01  0.2006E+02  0.2006E+02
     -3.089  0.2633E+01  0.2634E+01  0.2055E+02  0.2055E+02
     -2.902  0.2010E+01  0.2011E+01  0.2093E+02  0.2093E+02
     -2.716  0.5125E+01  0.5125E+01  0.2189E+02  0.2189E+02
     -2.529  0.5172E+01  0.5173E+01  0.2285E+02  0.2285E+02
     -2.343  0.8355E+01  0.8356E+01  0.2442E+02  0.2442E+02
     -2.156  0.7177E+01  0.7176E+01  0.2576E+02  0.2576E+02
     -1.970  0.9567E+01  0.9573E+01  0.2755E+02  0.2755E+02
     -1.783  0.1228E+02  0.1228E+02  0.2984E+02  0.2984E+02
     -1.596  0.1196E+02  0.1196E+02  0.3208E+02  0.3209E+02
     -1.410  0.4311E+01  0.4305E+01  0.3290E+02  0.3290E+02
     -1.223  0.4786E+00  0.4773E+00  0.3300E+02  0.3300E+02
     -1.037  0.0000E+00  0.0000E+00  0.3300E+02  0.3300E+02
     -0.850  0.0000E+00  0.0000E+00  0.3300E+02  0.3300E+02
     -0.664  0.0000E+00  0.0000E+00  0.3300E+02  0.3300E+02
     -0.477  0.0000E+00  0.0000E+00  0.3300E+02  0.3300E+02
     -0.290  0.0000E+00  0.0000E+00  0.3300E+02  0.3300E+02
     -0.104  0.0000E+00  0.0000E+00  0.3300E+02  0.3300E+02
      0.083  0.0000E+00  0.0000E+00  0.3300E+02  0.3300E+02
      0.269  0.0000E+00  0.0000E+00  0.3300E+02  0.3300E+02
      0.456  0.0000E+00  0.0000E+00  0.3300E+02  0.3300E+02
      0.642  0.0000E+00  0.0000E+00  0.3300E+02  0.3300E+02
      0.829  0.0000E+00  0.0000E+00  0.3300E+02  0.3300E+02
      1.015  0.0000E+00  0.0000E+00  0.3300E+02  0.3300E+02
      1.202  0.0000E+00  0.0000E+00  0.3300E+02  0.3300E+02
      1.389  0.0000E+00  0.0000E+00  0.3300E+02  0.3300E+02
      1.575  0.0000E+00  0.0000E+00  0.3300E+02  0.3300E+02
      1.762  0.0000E+00  0.0000E+00  0.3300E+02  0.3300E+02
      1.948  0.0000E+00  0.0000E+00  0.3300E+02  0.3300E+02
      2.135  0.0000E+00  0.0000E+00  0.3300E+02  0.3300E+02
      2.321  0.0000E+00  0.0000E+00  0.3300E+02  0.3300E+02
      2.508  0.0000E+00  0.0000E+00  0.3300E+02  0.3300E+02
      2.695  0.0000E+00  0.0000E+00  0.3300E+02  0.3300E+02
      2.881  0.0000E+00  0.0000E+00  0.3300E+02  0.3300E+02
      3.068  0.0000E+00  0.0000E+00  0.3300E+02  0.3300E+02
      3.254  0.2132E-04  0.2148E-04  0.3300E+02  0.3300E+02
      3.441  0.8614E-03  0.8678E-03  0.3300E+02  0.3300E+02
      3.627  0.2685E-01  0.2699E-01  0.3301E+02  0.3301E+02
      3.814  0.7457E-01  0.7446E-01  0.3302E+02  0.3302E+02
      4.001  0.1172E-01  0.1168E-01  0.3302E+02  0.3302E+02
      4.187  0.1386E+00  0.1389E+00  0.3305E+02  0.3305E+02
      4.374  0.5959E+00  0.5962E+00  0.3316E+02  0.3316E+02
      4.560  0.1769E+00  0.1763E+00  0.3319E+02  0.3319E+02
      4.747  0.7440E+00  0.7439E+00  0.3333E+02  0.3333E+02
      4.933  0.6888E+00  0.6893E+00  0.3346E+02  0.3346E+02
      5.120  0.1215E+01  0.1213E+01  0.3369E+02  0.3369E+02
      5.306  0.3283E+01  0.3281E+01  0.3430E+02  0.3430E+02
      5.493  0.3761E+01  0.3760E+01  0.3500E+02  0.3500E+02
      5.680  0.3495E+01  0.3497E+01  0.3565E+02  0.3565E+02
      5.866  0.1772E+01  0.1772E+01  0.3598E+02  0.3598E+02
      6.053  0.1362E+01  0.1357E+01  0.3624E+02  0.3624E+02
      6.239  0.2150E+01  0.2149E+01  0.3664E+02  0.3664E+02
      6.426  0.1364E+01  0.1359E+01  0.3690E+02  0.3690E+02
      6.612  0.2137E+01  0.2118E+01  0.3730E+02  0.3729E+02
      6.799  0.2594E+01  0.2539E+01  0.3779E+02  0.3777E+02
      6.986  0.2792E+01  0.2823E+01  0.3831E+02  0.3830E+02
      7.172  0.2256E+01  0.2279E+01  0.3873E+02  0.3873E+02
      7.359  0.2943E+01  0.2828E+01  0.3928E+02  0.3926E+02
      7.545  0.6207E+01  0.5995E+01  0.4044E+02  0.4037E+02
      7.732  0.4772E+01  0.5017E+01  0.4133E+02  0.4131E+02
      7.918  0.2256E+01  0.2018E+01  0.4176E+02  0.4169E+02
      8.105  0.2776E+01  0.2455E+01  0.4228E+02  0.4216E+02
      8.292  0.2033E+01  0.2642E+01  0.4266E+02  0.4265E+02
      8.478  0.2007E+01  0.2376E+01  0.4304E+02  0.4309E+02
      8.665  0.3075E+01  0.2938E+01  0.4361E+02  0.4364E+02
      8.851  0.1319E+01  0.1203E+01  0.4386E+02  0.4387E+02
      9.038  0.6730E+00  0.6633E+00  0.4399E+02  0.4399E+02
      9.224  0.5442E-01  0.3055E-01  0.4400E+02  0.4400E+02
      9.411  0.0000E+00  0.0000E+00  0.4400E+02  0.4400E+02
      9.598  0.0000E+00  0.0000E+00  0.4400E+02  0.4400E+02
      9.784  0.0000E+00  0.0000E+00  0.4400E+02  0.4400E+02
      9.971  0.0000E+00  0.0000E+00  0.4400E+02  0.4400E+02
     10.157  0.0000E+00  0.0000E+00  0.4400E+02  0.4400E+02
     10.344  0.0000E+00  0.0000E+00  0.4400E+02  0.4400E+02
     10.530  0.0000E+00  0.0000E+00  0.4400E+02  0.4400E+02
     10.717  0.0000E+00  0.0000E+00  0.4400E+02  0.4400E+02
     10.903  0.0000E+00  0.0000E+00  0.4400E+02  0.4400E+02
     11.090  0.0000E+00  0.0000E+00  0.4400E+02  0.4400E+02
     11.277  0.0000E+00  0.0000E+00  0.4400E+02  0.4400E+02
     11.463  0.0000E+00  0.0000E+00  0.4400E+02  0.4400E+02
     11.46315415    -44.50646925  301     -0.28900922      1.00000000
    -44.506  0.0000E+00  0.0000E+00  0.0000E+00  0.0000E+00  0.0000E+00  0.0000E+00  0.0000E+00  0.0000E+00  0.0000E+00  0.0000E+00  0.0000E+00  0.0000E+00  0.0000E+00  0.0000E+00  0.0000E+00  0.0000E+00  0.0000E+00  0.0000E+00
    -44.320  0.0000E+00  0.0000E+00  0.0000E+00  0.0000E+00  0.0000E+00  0.0000E+00  0.0000E+00  0.0000E+00  0.0000E+00  0.0000E+00  0.0000E+00  0.0000E+00  0.0000E+00  0.0000E+00  0.0000E+00  0.0000E+00  0.0000E+00  0.0000E+00
    -44.133  0.0000E+00  0.0000E+00  0.0000E+00  0.0000E+00  0.0000E+00  0.0000E+00  0.0000E+00  0.0000E+00  0.0000E+00  0.0000E+00  0.0000E+00  0.0000E+00  0.0000E+00  0.0000E+00  0.0000E+00  0.0000E+00  0.0000E+00  0.0000E+00
    -43.947  0.0000E+00  0.0000E+00  0.0000E+00  0.0000E+00  0.0000E+00  0.0000E+00  0.0000E+00  0.0000E+00  0.0000E+00  0.0000E+00  0.0000E+00  0.0000E+00  0.0000E+00  0.0000E+00  0.0000E+00  0.0000E+00  0.0000E+00  0.0000E+00
    -43.760  0.0000E+00  0.0000E+00  0.0000E+00  0.0000E+00  0.0000E+00  0.0000E+00  0.0000E+00  0.0000E+00  0.0000E+00  0.0000E+00  0.0000E+00  0.0000E+00  0.0000E+00  0.0000E+00  0.0000E+00  0.0000E+00  0.0000E+00  0.0000E+00
    -43.574  0.0000E+00  0.0000E+00  0.0000E+00  0.0000E+00  0.0000E+00  0.0000E+00  0.0000E+00  0.0000E+00  0.0000E+00  0.0000E+00  0.0000E+00  0.0000E+00  0.0000E+00  0.0000E+00  0.0000E+00  0.0000E+00  0.0000E+00  0.0000E+00
    -43.387  0.0000E+00  0.0000E+00  0.0000E+00  0.0000E+00  0.0000E+00  0.0000E+00  0.0000E+00  0.0000E+00  0.0000E+00  0.0000E+00  0.0000E+00  0.0000E+00  0.0000E+00  0.0000E+00  0.0000E+00  0.0000E+00  0.0000E+00  0.0000E+00
    -43.201  0.0000E+00  0.0000E+00  0.0000E+00  0.0000E+00  0.0000E+00  0.0000E+00  0.0000E+00  0.0000E+00  0.0000E+00  0.0000E+00  0.0000E+00  0.0000E+00  0.0000E+00  0.0000E+00  0.0000E+00  0.0000E+00  0.0000E+00  0.0000E+00
    -43.014  0.0000E+00  0.0000E+00  0.0000E+00  0.0000E+00  0.0000E+00  0.0000E+00  0.0000E+00  0.0000E+00  0.0000E+00  0.0000E+00  0.0000E+00  0.0000E+00  0.0000E+00  0.0000E+00  0.0000E+00  0.0000E+00  0.0000E+00  0.0000E+00
    -42.827  0.0000E+00  0.0000E+00  0.0000E+00  0.0000E+00  0.0000E+00  0.0000E+00  0.0000E+00  0.0000E+00  0.0000E+00  0.0000E+00  0.0000E+00  0.0000E+00  0.0000E+00  0.0000E+00  0.0000E+00  0.0000E+00  0.0000E+00  0.0000E+00
    -42.641  0.0000E+00  0.0000E+00  0.0000E+00  0.0000E+00  0.0000E+00  0.0000E+00  0.0000E+00  0.0000E+00  0.0000E+00  0.0000E+00  0.0000E+00  0.0000E+00  0.0000E+00  0.0000E+00  0.0000E+00  0.0000E+00  0.0000E+00  0.0000E+00
    -42.454  0.1429E-11  0.1426E-11  0.2371E-03  0.2363E-03  0.2802E-03  0.2797E-03  0.2371E-03  0.2363E-03  0.3410E-12  0.3424E-12  0.1783E-13  0.1794E-13  0.2069E-12  0.2079E-12  0.1783E-13  0.1794E-13  0.3410E-12  0.3424E-12
    -42.268  0.5808E-10  0.5796E-10  0.9638E-02  0.9608E-02  0.1139E-01  0.1137E-01  0.9638E-02  0.9608E-02  0.1386E-10  0.1392E-10  0.7246E-12  0.7294E-12  0.8410E-11  0.8454E-11  0.7246E-12  0.7294E-12  0.1386E-10  0.1392E-10
    -42.081  0.2249E-08  0.2244E-08  0.3733E+00  0.3722E+00  0.4354E+00  0.4346E+00  0.3733E+00  0.3722E+00  0.5370E-09  0.5393E-09  0.2778E-10  0.2796E-10  0.3256E-09  0.3274E-09  0.2778E-10  0.2796E-10  0.5370E-09  0.5393E-09
    -41.895  0.2209E-07  0.2210E-07  0.3686E+01  0.3684E+01  0.3776E+01  0.3775E+01  0.3686E+01  0.3684E+01  0.5308E-08  0.5344E-08  0.2477E-09  0.2496E-09  0.3199E-08  0.3224E-08  0.2477E-09  0.2496E-09  0.5308E-08  0.5344E-08
    -41.708  0.7261E-08  0.7287E-08  0.1219E+01  0.1222E+01  0.1072E+01  0.1073E+01  0.1219E+01  0.1222E+01  0.1758E-08  0.1775E-08  0.7289E-10  0.7356E-10  0.1052E-08  0.1063E-08  0.7289E-10  0.7356E-10  0.1758E-08  0.1775E-08
    -41.521  0.0000E+00  0.0000E+00  0.0000E+00  0.0000E+00  0.0000E+00  0.0000E+00  0.0000E+00  0.0000E+00  0.0000E+00  0.0000E+00  0.0000E+00  0.0000E+00  0.0000E+00  0.0000E+00  0.0000E+00  0.0000E+00  0.0000E+00  0.0000E+00
    -41.335  0.0000E+00  0.0000E+00  0.0000E+00  0.0000E+00  0.0000E+00  0.0000E+00  0.0000E+00  0.0000E+00  0.0000E+00  0.0000E+00  0.0000E+00  0.0000E+00  0.0000E+00  0.0000E+00  0.0000E+00  0.0000E+00  0.0000E+00  0.0000E+00
    -41.148  0.0000E+00  0.0000E+00  0.0000E+00  0.0000E+00  0.0000E+00  0.0000E+00  0.0000E+00  0.0000E+00  0.0000E+00  0.0000E+00  0.0000E+00  0.0000E+00  0.0000E+00  0.0000E+00  0.0000E+00  0.0000E+00  0.0000E+00  0.0000E+00
    -40.962  0.0000E+00  0.0000E+00  0.0000E+00  0.0000E+00  0.0000E+00  0.0000E+00  0.0000E+00  0.0000E+00  0.0000E+00  0.0000E+00  0.0000E+00  0.0000E+00  0.0000E+00  0.0000E+00  0.0000E+00  0.0000E+00  0.0000E+00  0.0000E+00
    -40.775  0.0000E+00  0.0000E+00  0.0000E+00  0.0000E+00  0.0000E+00  0.0000E+00  0.0000E+00  0.0000E+00  0.0000E+00  0.0000E+00  0.0000E+00  0.0000E+00  0.0000E+00  0.0000E+00  0.0000E+00  0.0000E+00  0.0000E+00  0.0000E+00
    -40.589  0.0000E+00  0.0000E+00  0.0000E+00  0.0000E+00  0.0000E+00  0.0000E+00  0.0000E+00  0.0000E+00  0.0000E+00  0.0000E+00  0.0000E+00  0.0000E+00  0.0000E+00  0.0000E+00  0.0000E+00  0.0000E+00  0.0000E+00  0.0000E+00
    -40.402  0.0000E+00  0.0000E+00  0.0000E+00  0.0000E+00  0.0000E+00  0.0000E+00  0.0000E+00  0.0000E+00  0.0000E+00  0.0000E+00  0.0000E+00  0.0000E+00  0.0000E+00  0.0000E+00  0.0000E+00  0.0000E+00  0.0000E+00  0.0000E+00
    -40.215  0.0000E+00  0.0000E+00  0.0000E+00  0.0000E+00  0.0000E+00  0.0000E+00  0.0000E+00  0.0000E+00  0.0000E+00  0.0000E+00  0.0000E+00  0.0000E+00  0.0000E+00  0.0000E+00  0.0000E+00  0.0000E+00  0.0000E+00  0.0000E+00
    -40.029  0.0000E+00  0.0000E+00  0.0000E+00  0.0000E+00  0.0000E+00  0.0000E+00  0.0000E+00  0.0000E+00  0.0000E+00  0.0000E+00  0.0000E+00  0.0000E+00  0.0000E+00  0.0000E+00  0.0000E+00  0.0000E+00  0.0000E+00  0.0000E+00
    -39.842  0.0000E+00  0.0000E+00  0.0000E+00  0.0000E+00  0.0000E+00  0.0000E+00  0.0000E+00  0.0000E+00  0.0000E+00  0.0000E+00  0.0000E+00  0.0000E+00  0.0000E+00  0.0000E+00  0.0000E+00  0.0000E+00  0.0000E+00  0.0000E+00
    -39.656  0.0000E+00  0.0000E+00  0.0000E+00  0.0000E+00  0.0000E+00  0.0000E+00  0.0000E+00  0.0000E+00  0.0000E+00  0.0000E+00  0.0000E+00  0.0000E+00  0.0000E+00  0.0000E+00  0.0000E+00  0.0000E+00  0.0000E+00  0.0000E+00
    -39.469  0.0000E+00  0.0000E+00  0.0000E+00  0.0000E+00  0.0000E+00  0.0000E+00  0.0000E+00  0.0000E+00  0.0000E+00  0.0000E+00  0.0000E+00  0.0000E+00  0.0000E+00  0.0000E+00  0.0000E+00  0.0000E+00  0.0000E+00  0.0000E+00
    -39.283  0.0000E+00  0.0000E+00  0.0000E+00  0.0000E+00  0.0000E+00  0.0000E+00  0.0000E+00  0.0000E+00  0.0000E+00  0.0000E+00  0.0000E+00  0.0000E+00  0.0000E+00  0.0000E+00  0.0000E+00  0.0000E+00  0.0000E+00  0.0000E+00
    -39.096  0.0000E+00  0.0000E+00  0.0000E+00  0.0000E+00  0.0000E+00  0.0000E+00  0.0000E+00  0.0000E+00  0.0000E+00  0.0000E+00  0.0000E+00  0.0000E+00  0.0000E+00  0.0000E+00  0.0000E+00  0.0000E+00  0.0000E+00  0.0000E+00
    -38.910  0.0000E+00  0.0000E+00  0.0000E+00  0.0000E+00  0.0000E+00  0.0000E+00  0.0000E+00  0.0000E+00  0.0000E+00  0.0000E+00  0.0000E+00  0.0000E+00  0.0000E+00  0.0000E+00  0.0000E+00  0.0000E+00  0.0000E+00  0.0000E+00
    -38.723  0.0000E+00  0.0000E+00  0.0000E+00  0.0000E+00  0.0000E+00  0.0000E+00  0.0000E+00  0.0000E+00  0.0000E+00  0.0000E+00  0.0000E+00  0.0000E+00  0.0000E+00  0.0000E+00  0.0000E+00  0.0000E+00  0.0000E+00  0.0000E+00
    -38.536  0.0000E+00  0.0000E+00  0.0000E+00  0.0000E+00  0.0000E+00  0.0000E+00  0.0000E+00  0.0000E+00  0.0000E+00  0.0000E+00  0.0000E+00  0.0000E+00  0.0000E+00  0.0000E+00  0.0000E+00  0.0000E+00  0.0000E+00  0.0000E+00
    -38.350  0.0000E+00  0.0000E+00  0.0000E+00  0.0000E+00  0.0000E+00  0.0000E+00  0.0000E+00  0.0000E+00  0.0000E+00  0.0000E+00  0.0000E+00  0.0000E+00  0.0000E+00  0.0000E+00  0.0000E+00  0.0000E+00  0.0000E+00  0.0000E+00
    -38.163  0.0000E+00  0.0000E+00  0.0000E+00  0.0000E+00  0.0000E+00  0.0000E+00  0.0000E+00  0.0000E+00  0.0000E+00  0.0000E+00  0.0000E+00  0.0000E+00  0.0000E+00  0.0000E+00  0.0000E+00  0.0000E+00  0.0000E+00  0.0000E+00
    -37.977  0.0000E+00  0.0000E+00  0.0000E+00  0.0000E+00  0.0000E+00  0.0000E+00  0.0000E+00  0.0000E+00  0.0000E+00  0.0000E+00  0.0000E+00  0.0000E+00  0.0000E+00  0.0000E+00  0.0000E+00  0.0000E+00  0.0000E+00  0.0000E+00
    -37.790  0.0000E+00  0.0000E+00  0.0000E+00  0.0000E+00  0.0000E+00  0.0000E+00  0.0000E+00  0.0000E+00  0.0000E+00  0.0000E+00  0.0000E+00  0.0000E+00  0.0000E+00  0.0000E+00  0.0000E+00  0.0000E+00  0.0000E+00  0.0000E+00
    -37.604  0.0000E+00  0.0000E+00  0.0000E+00  0.0000E+00  0.0000E+00  0.0000E+00  0.0000E+00  0.0000E+00  0.0000E+00  0.0000E+00  0.0000E+00  0.0000E+00  0.0000E+00  0.0000E+00  0.0000E+00  0.0000E+00  0.0000E+00  0.0000E+00
    -37.417  0.0000E+00  0.0000E+00  0.0000E+00  0.0000E+00  0.0000E+00  0.0000E+00  0.0000E+00  0.0000E+00  0.0000E+00  0.0000E+00  0.0000E+00  0.0000E+00  0.0000E+00  0.0000E+00  0.0000E+00  0.0000E+00  0.0000E+00  0.0000E+00
    -37.230  0.0000E+00  0.0000E+00  0.0000E+00  0.0000E+00  0.0000E+00  0.0000E+00  0.0000E+00  0.0000E+00  0.0000E+00  0.0000E+00  0.0000E+00  0.0000E+00  0.0000E+00  0.0000E+00  0.0000E+00  0.0000E+00  0.0000E+00  0.0000E+00
    -37.044  0.0000E+00  0.0000E+00  0.0000E+00  0.0000E+00  0.0000E+00  0.0000E+00  0.0000E+00  0.0000E+00  0.0000E+00  0.0000E+00  0.0000E+00  0.0000E+00  0.0000E+00  0.0000E+00  0.0000E+00  0.0000E+00  0.0000E+00  0.0000E+00
    -36.857  0.0000E+00  0.0000E+00  0.0000E+00  0.0000E+00  0.0000E+00  0.0000E+00  0.0000E+00  0.0000E+00  0.0000E+00  0.0000E+00  0.0000E+00  0.0000E+00  0.0000E+00  0.0000E+00  0.0000E+00  0.0000E+00  0.0000E+00  0.0000E+00
    -36.671  0.0000E+00  0.0000E+00  0.0000E+00  0.0000E+00  0.0000E+00  0.0000E+00  0.0000E+00  0.0000E+00  0.0000E+00  0.0000E+00  0.0000E+00  0.0000E+00  0.0000E+00  0.0000E+00  0.0000E+00  0.0000E+00  0.0000E+00  0.0000E+00
    -36.484  0.0000E+00  0.0000E+00  0.0000E+00  0.0000E+00  0.0000E+00  0.0000E+00  0.0000E+00  0.0000E+00  0.0000E+00  0.0000E+00  0.0000E+00  0.0000E+00  0.0000E+00  0.0000E+00  0.0000E+00  0.0000E+00  0.0000E+00  0.0000E+00
    -36.298  0.0000E+00  0.0000E+00  0.0000E+00  0.0000E+00  0.0000E+00  0.0000E+00  0.0000E+00  0.0000E+00  0.0000E+00  0.0000E+00  0.0000E+00  0.0000E+00  0.0000E+00  0.0000E+00  0.0000E+00  0.0000E+00  0.0000E+00  0.0000E+00
    -36.111  0.0000E+00  0.0000E+00  0.0000E+00  0.0000E+00  0.0000E+00  0.0000E+00  0.0000E+00  0.0000E+00  0.0000E+00  0.0000E+00  0.0000E+00  0.0000E+00  0.0000E+00  0.0000E+00  0.0000E+00  0.0000E+00  0.0000E+00  0.0000E+00
    -35.924  0.0000E+00  0.0000E+00  0.0000E+00  0.0000E+00  0.0000E+00  0.0000E+00  0.0000E+00  0.0000E+00  0.0000E+00  0.0000E+00  0.0000E+00  0.0000E+00  0.0000E+00  0.0000E+00  0.0000E+00  0.0000E+00  0.0000E+00  0.0000E+00
    -35.738  0.0000E+00  0.0000E+00  0.0000E+00  0.0000E+00  0.0000E+00  0.0000E+00  0.0000E+00  0.0000E+00  0.0000E+00  0.0000E+00  0.0000E+00  0.0000E+00  0.0000E+00  0.0000E+00  0.0000E+00  0.0000E+00  0.0000E+00  0.0000E+00
    -35.551  0.0000E+00  0.0000E+00  0.0000E+00  0.0000E+00  0.0000E+00  0.0000E+00  0.0000E+00  0.0000E+00  0.0000E+00  0.0000E+00  0.0000E+00  0.0000E+00  0.0000E+00  0.0000E+00  0.0000E+00  0.0000E+00  0.0000E+00  0.0000E+00
    -35.365  0.0000E+00  0.0000E+00  0.0000E+00  0.0000E+00  0.0000E+00  0.0000E+00  0.0000E+00  0.0000E+00  0.0000E+00  0.0000E+00  0.0000E+00  0.0000E+00  0.0000E+00  0.0000E+00  0.0000E+00  0.0000E+00  0.0000E+00  0.0000E+00
    -35.178  0.0000E+00  0.0000E+00  0.0000E+00  0.0000E+00  0.0000E+00  0.0000E+00  0.0000E+00  0.0000E+00  0.0000E+00  0.0000E+00  0.0000E+00  0.0000E+00  0.0000E+00  0.0000E+00  0.0000E+00  0.0000E+00  0.0000E+00  0.0000E+00