   9   9   1   0
  0.2133598E+02  0.3495109E-09  0.3495109E-09  0.1815110E-08  0.5000000E-15
  1.000000000000000E-004
  CAR 
 unknown system                          
     13.82996225    -42.05845614  301      1.53596563      1.00000000
    -42.058  0.0000E+00  0.0000E+00  0.0000E+00  0.0000E+00
    -41.872  0.0000E+00  0.0000E+00  0.0000E+00  0.0000E+00
    -41.686  0.0000E+00  0.0000E+00  0.0000E+00  0.0000E+00
    -41.500  0.0000E+00  0.0000E+00  0.0000E+00  0.0000E+00
    -41.313  0.0000E+00  0.0000E+00  0.0000E+00  0.0000E+00
    -41.127  0.0000E+00  0.0000E+00  0.0000E+00  0.0000E+00
    -40.941  0.0000E+00  0.0000E+00  0.0000E+00  0.0000E+00
    -40.754  0.0000E+00  0.0000E+00  0.0000E+00  0.0000E+00
    -40.568  0.0000E+00  0.0000E+00  0.0000E+00  0.0000E+00
    -40.382  0.0000E+00  0.0000E+00  0.0000E+00  0.0000E+00
    -40.196  0.0000E+00  0.0000E+00  0.0000E+00  0.0000E+00
    -40.009  0.2306E-02  0.2307E-02  0.4296E-03  0.4299E-03
    -39.823  0.9323E-01  0.9329E-01  0.1780E-01  0.1781E-01
    -39.637  0.3575E+01  0.3577E+01  0.6838E+00  0.6842E+00
    -39.450  0.3367E+02  0.3368E+02  0.6957E+01  0.6958E+01
    -39.264  0.1063E+02  0.1062E+02  0.8937E+01  0.8937E+01
    -39.078  0.0000E+00  0.0000E+00  0.9000E+01  0.9000E+01
    -38.891  0.0000E+00  0.0000E+00  0.9000E+01  0.9000E+01
    -38.705  0.0000E+00  0.0000E+00  0.9000E+01  0.9000E+01
    -38.519  0.0000E+00  0.0000E+00  0.9000E+01  0.9000E+01
    -38.333  0.0000E+00  0.0000E+00  0.9000E+01  0.9000E+01
    -38.146  0.0000E+00  0.0000E+00  0.9000E+01  0.9000E+01
    -37.960  0.0000E+00  0.0000E+00  0.9000E+01  0.9000E+01
    -37.774  0.0000E+00  0.0000E+00  0.9000E+01  0.9000E+01
    -37.587  0.0000E+00  0.0000E+00  0.9000E+01  0.9000E+01
    -37.401  0.0000E+00  0.0000E+00  0.9000E+01  0.9000E+01
    -37.215  0.0000E+00  0.0000E+00  0.9000E+01  0.9000E+01
    -37.028  0.0000E+00  0.0000E+00  0.9000E+01  0.9000E+01
    -36.842  0.0000E+00  0.0000E+00  0.9000E+01  0.9000E+01
    -36.656  0.0000E+00  0.0000E+00  0.9000E+01  0.9000E+01
    -36.470  0.0000E+00  0.0000E+00  0.9000E+01  0.9000E+01
    -36.283  0.0000E+00  0.0000E+00  0.9000E+01  0.9000E+01
    -36.097  0.0000E+00  0.0000E+00  0.9000E+01  0.9000E+01
    -35.911  0.0000E+00  0.0000E+00  0.9000E+01  0.9000E+01
    -35.724  0.0000E+00  0.0000E+00  0.9000E+01  0.9000E+01
    -35.538  0.0000E+00  0.0000E+00  0.9000E+01  0.9000E+01
    -35.352  0.0000E+00  0.0000E+00  0.9000E+01  0.9000E+01
    -35.166  0.0000E+00  0.0000E+00  0.9000E+01  0.9000E+01
    -34.979  0.0000E+00  0.0000E+00  0.9000E+01  0.9000E+01
    -34.793  0.0000E+00  0.0000E+00  0.9000E+01  0.9000E+01
    -34.607  0.0000E+00  0.0000E+00  0.9000E+01  0.9000E+01
    -34.420  0.0000E+00  0.0000E+00  0.9000E+01  0.9000E+01
    -34.234  0.0000E+00  0.0000E+00  0.9000E+01  0.9000E+01
    -34.048  0.0000E+00  0.0000E+00  0.9000E+01  0.9000E+01
    -33.861  0.0000E+00  0.0000E+00  0.9000E+01  0.9000E+01
    -33.675  0.0000E+00  0.0000E+00  0.9000E+01  0.9000E+01
    -33.489  0.0000E+00  0.0000E+00  0.9000E+01  0.9000E+01
    -33.303  0.0000E+00  0.0000E+00  0.9000E+01  0.9000E+01
    -33.116  0.0000E+00  0.0000E+00  0.9000E+01  0.9000E+01
    -32.930  0.0000E+00  0.0000E+00  0.9000E+01  0.9000E+01
    -32.744  0.0000E+00  0.0000E+00  0.9000E+01  0.9000E+01
    -32.557  0.0000E+00  0.0000E+00  0.9000E+01  0.9000E+01
    -32.371  0.0000E+00  0.0000E+00  0.9000E+01  0.9000E+01
    -32.185  0.0000E+00  0.0000E+00  0.9000E+01  0.9000E+01
    -31.999  0.0000E+00  0.0000E+00  0.9000E+01  0.9000E+01
    -31.812  0.0000E+00  0.0000E+00  0.9000E+01  0.9000E+01
    -31.626  0.0000E+00  0.0000E+00  0.9000E+01  0.9000E+01
    -31.440  0.0000E+00  0.0000E+00  0.9000E+01  0.9000E+01
    -31.253  0.0000E+00  0.0000E+00  0.9000E+01  0.9000E+01
    -31.067  0.0000E+00  0.0000E+00  0.9000E+01  0.9000E+01
    -30.881  0.0000E+00  0.0000E+00  0.9000E+01  0.9000E+01
    -30.694  0.0000E+00  0.0000E+00  0.9000E+01  0.9000E+01
    -30.508  0.0000E+00  0.0000E+00  0.9000E+01  0.9000E+01
    -30.322  0.0000E+00  0.0000E+00  0.9000E+01  0.9000E+01
    -30.136  0.0000E+00  0.0000E+00  0.9000E+01  0.9000E+01
    -29.949  0.0000E+00  0.0000E+00  0.9000E+01  0.9000E+01
    -29.763  0.0000E+00  0.0000E+00  0.9000E+01  0.9000E+01
    -29.577  0.0000E+00  0.0000E+00  0.9000E+01  0.9000E+01
    -29.390  0.0000E+00  0.0000E+00  0.9000E+01  0.9000E+01
    -29.204  0.0000E+00  0.0000E+00  0.9000E+01  0.9000E+01
    -29.018  0.0000E+00  0.0000E+00  0.9000E+01  0.9000E+01
    -28.832  0.0000E+00  0.0000E+00  0.9000E+01  0.9000E+01
    -28.645  0.0000E+00  0.0000E+00  0.9000E+01  0.9000E+01
    -28.459  0.0000E+00  0.0000E+00  0.9000E+01  0.9000E+01
    -28.273  0.0000E+00  0.0000E+00  0.9000E+01  0.9000E+01
    -28.086  0.0000E+00  0.0000E+00  0.9000E+01  0.9000E+01
    -27.900  0.0000E+00  0.0000E+00  0.9000E+01  0.9000E+01
    -27.714  0.0000E+00  0.0000E+00  0.9000E+01  0.9000E+01
    -27.527  0.0000E+00  0.0000E+00  0.9000E+01  0.9000E+01
    -27.341  0.0000E+00  0.0000E+00  0.9000E+01  0.9000E+01
    -27.155  0.0000E+00  0.0000E+00  0.9000E+01  0.9000E+01
    -26.969  0.0000E+00  0.0000E+00  0.9000E+01  0.9000E+01
    -26.782  0.0000E+00  0.0000E+00  0.9000E+01  0.9000E+01
    -26.596  0.0000E+00  0.0000E+00  0.9000E+01  0.9000E+01
    -26.410  0.0000E+00  0.0000E+00  0.9000E+01  0.9000E+01
    -26.223  0.0000E+00  0.0000E+00  0.9000E+01  0.9000E+01
    -26.037  0.0000E+00  0.0000E+00  0.9000E+01  0.9000E+01
    -25.851  0.0000E+00  0.0000E+00  0.9000E+01  0.9000E+01
    -25.665  0.0000E+00  0.0000E+00  0.9000E+01  0.9000E+01
    -25.478  0.0000E+00  0.0000E+00  0.9000E+01  0.9000E+01
    -25.292  0.0000E+00  0.0000E+00  0.9000E+01  0.9000E+01
    -25.106  0.0000E+00  0.0000E+00  0.9000E+01  0.9000E+01
    -24.919  0.0000E+00  0.0000E+00  0.9000E+01  0.9000E+01
    -24.733  0.0000E+00  0.0000E+00  0.9000E+01  0.9000E+01
    -24.547  0.0000E+00  0.0000E+00  0.9000E+01  0.9000E+01
    -24.360  0.0000E+00  0.0000E+00  0.9000E+01  0.9000E+01
    -24.174  0.0000E+00  0.0000E+00  0.9000E+01  0.9000E+01
    -23.988  0.0000E+00  0.0000E+00  0.9000E+01  0.9000E+01
    -23.802  0.0000E+00  0.0000E+00  0.9000E+01  0.9000E+01
    -23.615  0.0000E+00  0.0000E+00  0.9000E+01  0.9000E+01
    -23.429  0.0000E+00  0.0000E+00  0.9000E+01  0.9000E+01
    -23.243  0.0000E+00  0.0000E+00  0.9000E+01  0.9000E+01
    -23.056  0.0000E+00  0.0000E+00  0.9000E+01  0.9000E+01
    -22.870  0.0000E+00  0.0000E+00  0.9000E+01  0.9000E+01
    -22.684  0.0000E+00  0.0000E+00  0.9000E+01  0.9000E+01
    -22.498  0.0000E+00  0.0000E+00  0.9000E+01  0.9000E+01
    -22.311  0.0000E+00  0.0000E+00  0.9000E+01  0.9000E+01
    -22.125  0.0000E+00  0.0000E+00  0.9000E+01  0.9000E+01
    -21.939  0.0000E+00  0.0000E+00  0.9000E+01  0.9000E+01
    -21.752  0.0000E+00  0.0000E+00  0.9000E+01  0.9000E+01
    -21.566  0.0000E+00  0.0000E+00  0.9000E+01  0.9000E+01
    -21.380  0.0000E+00  0.0000E+00  0.9000E+01  0.9000E+01
    -21.193  0.0000E+00  0.0000E+00  0.9000E+01  0.9000E+01
    -21.007  0.0000E+00  0.0000E+00  0.9000E+01  0.9000E+01
    -20.821  0.0000E+00  0.0000E+00  0.9000E+01  0.9000E+01
    -20.635  0.0000E+00  0.0000E+00  0.9000E+01  0.9000E+01
    -20.448  0.0000E+00  0.0000E+00  0.9000E+01  0.9000E+01
    -20.262  0.0000E+00  0.0000E+00  0.9000E+01  0.9000E+01
    -20.076  0.0000E+00  0.0000E+00  0.9000E+01  0.9000E+01
    -19.889  0.0000E+00  0.0000E+00  0.9000E+01  0.9000E+01
    -19.703  0.0000E+00  0.0000E+00  0.9000E+01  0.9000E+01
    -19.517  0.0000E+00  0.0000E+00  0.9000E+01  0.9000E+01
    -19.330  0.0000E+00  0.0000E+00  0.9000E+01  0.9000E+01
    -19.144  0.0000E+00  0.0000E+00  0.9000E+01  0.9000E+01
    -18.958  0.0000E+00  0.0000E+00  0.9000E+01  0.9000E+01
    -18.772  0.0000E+00  0.0000E+00  0.9000E+01  0.9000E+01
    -18.585  0.0000E+00  0.0000E+00  0.9000E+01  0.9000E+01
    -18.399  0.0000E+00  0.0000E+00  0.9000E+01  0.9000E+01
    -18.213  0.0000E+00  0.0000E+00  0.9000E+01  0.9000E+01
    -18.026  0.0000E+00  0.0000E+00  0.9000E+01  0.9000E+01
    -17.840  0.0000E+00  0.0000E+00  0.9000E+01  0.9000E+01
    -17.654  0.0000E+00  0.0000E+00  0.9000E+01  0.9000E+01
    -17.468  0.0000E+00  0.0000E+00  0.9000E+01  0.9000E+01
    -17.281  0.0000E+00  0.0000E+00  0.9000E+01  0.9000E+01
    -17.095  0.0000E+00  0.0000E+00  0.9000E+01  0.9000E+01
    -16.909  0.0000E+00  0.0000E+00  0.9000E+01  0.9000E+01
    -16.722  0.0000E+00  0.0000E+00  0.9000E+01  0.9000E+01
    -16.536  0.0000E+00  0.0000E+00  0.9000E+01  0.9000E+01
    -16.350  0.0000E+00  0.0000E+00  0.9000E+01  0.9000E+01
    -16.163  0.0000E+00  0.0000E+00  0.9000E+01  0.9000E+01
    -15.977  0.0000E+00  0.0000E+00  0.9000E+01  0.9000E+01
    -15.791  0.0000E+00  0.0000E+00  0.9000E+01  0.9000E+01
    -15.605  0.0000E+00  0.0000E+00  0.9000E+01  0.9000E+01
    -15.418  0.0000E+00  0.0000E+00  0.9000E+01  0.9000E+01
    -15.232  0.0000E+00  0.0000E+00  0.9000E+01  0.9000E+01
    -15.046  0.0000E+00  0.0000E+00  0.9000E+01  0.9000E+01
    -14.859  0.0000E+00  0.0000E+00  0.9000E+01  0.9000E+01
    -14.673  0.0000E+00  0.0000E+00  0.9000E+01  0.9000E+01
    -14.487  0.9958E-06  0.9826E-06  0.9000E+01  0.9000E+01
    -14.301  0.9727E-04  0.9598E-04  0.9000E+01  0.9000E+01
    -14.114  0.3947E-02  0.3895E-02  0.9001E+01  0.9001E+01
    -13.928  0.1262E+00  0.1248E+00  0.9024E+01  0.9024E+01
    -13.742  0.1103E+01  0.1098E+01  0.9230E+01  0.9229E+01
    -13.555  0.1485E+01  0.1486E+01  0.9506E+01  0.9505E+01
    -13.369  0.2491E+01  0.2488E+01  0.9971E+01  0.9969E+01
    -13.183  0.1889E+01  0.1888E+01  0.1032E+02  0.1032E+02
    -12.996  0.4357E+01  0.4350E+01  0.1114E+02  0.1113E+02
    -12.810  0.6775E+01  0.6759E+01  0.1240E+02  0.1239E+02
    -12.624  0.1087E+02  0.1087E+02  0.1443E+02  0.1442E+02
    -12.438  0.2956E+01  0.2985E+01  0.1498E+02  0.1498E+02
    -12.251  0.1839E-01  0.1863E-01  0.1500E+02  0.1500E+02
    -12.065  0.0000E+00  0.0000E+00  0.1500E+02  0.1500E+02
    -11.879  0.0000E+00  0.0000E+00  0.1500E+02  0.1500E+02
    -11.692  0.0000E+00  0.0000E+00  0.1500E+02  0.1500E+02
    -11.506  0.0000E+00  0.0000E+00  0.1500E+02  0.1500E+02
    -11.320  0.0000E+00  0.0000E+00  0.1500E+02  0.1500E+02
    -11.134  0.0000E+00  0.0000E+00  0.1500E+02  0.1500E+02
    -10.947  0.0000E+00  0.0000E+00  0.1500E+02  0.1500E+02
    -10.761  0.0000E+00  0.0000E+00  0.1500E+02  0.1500E+02
    -10.575  0.0000E+00  0.0000E+00  0.1500E+02  0.1500E+02
    -10.388  0.0000E+00  0.0000E+00  0.1500E+02  0.1500E+02
    -10.202  0.0000E+00  0.0000E+00  0.1500E+02  0.1500E+02
    -10.016  0.0000E+00  0.0000E+00  0.1500E+02  0.1500E+02
     -9.829  0.0000E+00  0.0000E+00  0.1500E+02  0.1500E+02
     -9.643  0.0000E+00  0.0000E+00  0.1500E+02  0.1500E+02
     -9.457  0.0000E+00  0.0000E+00  0.1500E+02  0.1500E+02
     -9.271  0.0000E+00  0.0000E+00  0.1500E+02  0.1500E+02
     -9.084  0.0000E+00  0.0000E+00  0.1500E+02  0.1500E+02
     -8.898  0.0000E+00  0.0000E+00  0.1500E+02  0.1500E+02
     -8.712  0.0000E+00  0.0000E+00  0.1500E+02  0.1500E+02
     -8.525  0.0000E+00  0.0000E+00  0.1500E+02  0.1500E+02
     -8.339  0.0000E+00  0.0000E+00  0.1500E+02  0.1500E+02
     -8.153  0.0000E+00  0.0000E+00  0.1500E+02  0.1500E+02
     -7.967  0.0000E+00  0.0000E+00  0.1500E+02  0.1500E+02
     -7.780  0.0000E+00  0.0000E+00  0.1500E+02  0.1500E+02
     -7.594  0.0000E+00  0.0000E+00  0.1500E+02  0.1500E+02
     -7.408  0.0000E+00  0.0000E+00  0.1500E+02  0.1500E+02
     -7.221  0.0000E+00  0.0000E+00  0.1500E+02  0.1500E+02
     -7.035  0.0000E+00  0.0000E+00  0.1500E+02  0.1500E+02
     -6.849  0.0000E+00  0.0000E+00  0.1500E+02  0.1500E+02
     -6.662  0.0000E+00  0.0000E+00  0.1500E+02  0.1500E+02
     -6.476  0.0000E+00  0.0000E+00  0.1500E+02  0.1500E+02
     -6.290  0.0000E+00  0.0000E+00  0.1500E+02  0.1500E+02
     -6.104  0.0000E+00  0.0000E+00  0.1500E+02  0.1500E+02
     -5.917  0.0000E+00  0.0000E+00  0.1500E+02  0.1500E+02
     -5.731  0.0000E+00  0.0000E+00  0.1500E+02  0.1500E+02
     -5.545  0.0000E+00  0.0000E+00  0.1500E+02  0.1500E+02
     -5.358  0.0000E+00  0.0000E+00  0.1500E+02  0.1500E+02
     -5.172  0.0000E+00  0.0000E+00  0.1500E+02  0.1500E+02
     -4.986  0.0000E+00  0.0000E+00  0.1500E+02  0.1500E+02
     -4.800  0.0000E+00  0.0000E+00  0.1500E+02  0.1500E+02
     -4.613  0.0000E+00  0.0000E+00  0.1500E+02  0.1500E+02
     -4.427  0.0000E+00  0.0000E+00  0.1500E+02  0.1500E+02
     -4.241  0.0000E+00  0.0000E+00  0.1500E+02  0.1500E+02
     -4.054  0.5849E-05  0.5764E-05  0.1500E+02  0.1500E+02
     -3.868  0.5097E-03  0.5023E-03  0.1500E+02  0.1500E+02
     -3.682  0.2066E-01  0.2037E-01  0.1500E+02  0.1500E+02
     -3.495  0.6125E+00  0.6061E+00  0.1512E+02  0.1512E+02
     -3.309  0.2602E+01  0.2600E+01  0.1560E+02  0.1560E+02
     -3.123  0.1794E+01  0.1790E+01  0.1594E+02  0.1593E+02
     -2.937  0.4768E+01  0.4762E+01  0.1683E+02  0.1683E+02
     -2.750  0.5335E+01  0.5325E+01  0.1782E+02  0.1782E+02
     -2.564  0.7492E+01  0.7492E+01  0.1922E+02  0.1922E+02
     -2.378  0.4127E+01  0.4146E+01  0.1999E+02  0.1999E+02
     -2.191  0.2447E+01  0.2449E+01  0.2045E+02  0.2045E+02
     -2.005  0.1019E+01  0.1022E+01  0.2064E+02  0.2064E+02
     -1.819  0.1543E+01  0.1540E+01  0.2093E+02  0.2093E+02
     -1.633  0.3449E+01  0.3442E+01  0.2158E+02  0.2157E+02
     -1.446  0.4026E+01  0.4028E+01  0.2233E+02  0.2233E+02
     -1.260  0.3950E+01  0.3947E+01  0.2307E+02  0.2306E+02
     -1.074  0.6157E+01  0.6150E+01  0.2422E+02  0.2421E+02
     -0.887  0.6052E+01  0.6057E+01  0.2535E+02  0.2534E+02
     -0.701  0.3639E+01  0.3641E+01  0.2603E+02  0.2603E+02
     -0.515  0.8797E+01  0.8783E+01  0.2767E+02  0.2767E+02
     -0.328  0.7931E+01  0.7934E+01  0.2915E+02  0.2915E+02
     -0.142  0.9395E+01  0.9395E+01  0.3092E+02  0.3091E+02
      0.044  0.7165E+01  0.7176E+01  0.3225E+02  0.3225E+02
      0.230  0.3133E+01  0.3141E+01  0.3284E+02  0.3284E+02
      0.417  0.7809E+00  0.7853E+00  0.3299E+02  0.3299E+02
      0.603  0.2525E-01  0.2548E-01  0.3300E+02  0.3300E+02
      0.789  0.0000E+00  0.0000E+00  0.3300E+02  0.3300E+02
      0.976  0.0000E+00  0.0000E+00  0.3300E+02  0.3300E+02
      1.162  0.0000E+00  0.0000E+00  0.3300E+02  0.3300E+02
      1.348  0.0000E+00  0.0000E+00  0.3300E+02  0.3300E+02
      1.535  0.0000E+00  0.0000E+00  0.3300E+02  0.3300E+02
      1.721  0.0000E+00  0.0000E+00  0.3300E+02  0.3300E+02
      1.907  0.0000E+00  0.0000E+00  0.3300E+02  0.3300E+02
      2.093  0.0000E+00  0.0000E+00  0.3300E+02  0.3300E+02
      2.280  0.0000E+00  0.0000E+00  0.3300E+02  0.3300E+02
      2.466  0.0000E+00  0.0000E+00  0.3300E+02  0.3300E+02
      2.652  0.0000E+00  0.0000E+00  0.3300E+02  0.3300E+02
      2.839  0.0000E+00  0.0000E+00  0.3300E+02  0.3300E+02
      3.025  0.0000E+00  0.0000E+00  0.3300E+02  0.3300E+02
      3.211  0.0000E+00  0.0000E+00  0.3300E+02  0.3300E+02
      3.397  0.0000E+00  0.0000E+00  0.3300E+02  0.3300E+02
      3.584  0.0000E+00  0.0000E+00  0.3300E+02  0.3300E+02
      3.770  0.0000E+00  0.0000E+00  0.3300E+02  0.3300E+02
      3.956  0.0000E+00  0.0000E+00  0.3300E+02  0.3300E+02
      4.143  0.0000E+00  0.0000E+00  0.3300E+02  0.3300E+02
      4.329  0.0000E+00  0.0000E+00  0.3300E+02  0.3300E+02
      4.515  0.0000E+00  0.0000E+00  0.3300E+02  0.3300E+02
      4.702  0.0000E+00  0.0000E+00  0.3300E+02  0.3300E+02
      4.888  0.0000E+00  0.0000E+00  0.3300E+02  0.3300E+02
      5.074  0.0000E+00  0.0000E+00  0.3300E+02  0.3300E+02
      5.260  0.0000E+00  0.0000E+00  0.3300E+02  0.3300E+02
      5.447  0.0000E+00  0.0000E+00  0.3300E+02  0.3300E+02
      5.633  0.0000E+00  0.0000E+00  0.3300E+02  0.3300E+02
      5.819  0.0000E+00  0.0000E+00  0.3300E+02  0.3300E+02
      6.006  0.0000E+00  0.0000E+00  0.3300E+02  0.3300E+02
      6.192  0.1310E-04  0.1282E-04  0.3300E+02  0.3300E+02
      6.378  0.5279E-03  0.5168E-03  0.3300E+02  0.3300E+02
      6.564  0.1817E-01  0.1785E-01  0.3300E+02  0.3300E+02
      6.751  0.7937E-01  0.7948E-01  0.3302E+02  0.3302E+02
      6.937  0.1155E-01  0.1176E-01  0.3302E+02  0.3302E+02
      7.123  0.1596E-01  0.1558E-01  0.3302E+02  0.3302E+02
      7.310  0.3954E+00  0.3896E+00  0.3310E+02  0.3310E+02
      7.496  0.1214E+01  0.1213E+01  0.3332E+02  0.3332E+02
      7.682  0.1159E+01  0.1162E+01  0.3354E+02  0.3354E+02
      7.869  0.7801E+00  0.7765E+00  0.3369E+02  0.3368E+02
      8.055  0.1823E+01  0.1812E+01  0.3403E+02  0.3402E+02
      8.241  0.3828E+01  0.3812E+01  0.3474E+02  0.3473E+02
      8.427  0.3335E+01  0.3339E+01  0.3536E+02  0.3536E+02
      8.614  0.5001E+01  0.4992E+01  0.3630E+02  0.3629E+02
      8.800  0.5124E+01  0.5132E+01  0.3725E+02  0.3724E+02
      8.986  0.2593E+01  0.2583E+01  0.3774E+02  0.3773E+02
      9.173  0.3639E+01  0.3604E+01  0.3842E+02  0.3840E+02
      9.359  0.3244E+01  0.3277E+01  0.3902E+02  0.3901E+02
      9.545  0.4985E+01  0.4945E+01  0.3995E+02  0.3994E+02
      9.731  0.3296E+01  0.3275E+01  0.4057E+02  0.4055E+02
      9.918  0.2349E+01  0.2381E+01  0.4101E+02  0.4100E+02
     10.104  0.2264E+01  0.2206E+01  0.4144E+02  0.4141E+02
     10.290  0.3516E+01  0.3638E+01  0.4209E+02  0.4209E+02
     10.477  0.2549E+01  0.2441E+01  0.4257E+02  0.4255E+02
     10.663  0.1706E+01  0.2467E+01  0.4289E+02  0.4301E+02
     10.849  0.2829E+01  0.2586E+01  0.4342E+02  0.4349E+02
     11.036  0.2173E+01  0.1698E+01  0.4382E+02  0.4381E+02
     11.222  0.3974E+00  0.9259E+00  0.4390E+02  0.4399E+02
     11.408  0.4664E+00  0.7335E-01  0.4399E+02  0.4400E+02
     11.594  0.5466E-01  0.0000E+00  0.4400E+02  0.4400E+02
     11.781  0.0000E+00  0.0000E+00  0.4400E+02  0.4400E+02
     11.967  0.0000E+00  0.0000E+00  0.4400E+02  0.4400E+02
     12.153  0.0000E+00  0.0000E+00  0.4400E+02  0.4400E+02
     12.340  0.0000E+00  0.0000E+00  0.4400E+02  0.4400E+02
     12.526  0.0000E+00  0.0000E+00  0.4400E+02  0.4400E+02
     12.712  0.0000E+00  0.0000E+00  0.4400E+02  0.4400E+02
     12.898  0.0000E+00  0.0000E+00  0.4400E+02  0.4400E+02
     13.085  0.0000E+00  0.0000E+00  0.4400E+02  0.4400E+02
     13.271  0.0000E+00  0.0000E+00  0.4400E+02  0.4400E+02
     13.457  0.0000E+00  0.0000E+00  0.4400E+02  0.4400E+02
     13.644  0.0000E+00  0.0000E+00  0.4400E+02  0.4400E+02
     13.830  0.0000E+00  0.0000E+00  0.4400E+02  0.4400E+02
     13.82996225    -42.05845614  301      1.53596563      1.00000000
    -42.058  0.0000E+00  0.0000E+00  0.0000E+00  0.0000E+00  0.0000E+00  0.0000E+00  0.0000E+00  0.0000E+00  0.0000E+00  0.0000E+00  0.0000E+00  0.0000E+00  0.0000E+00  0.0000E+00  0.0000E+00  0.0000E+00  0.0000E+00  0.0000E+00
    -41.872  0.0000E+00  0.0000E+00  0.0000E+00  0.0000E+00  0.0000E+00  0.0000E+00  0.0000E+00  0.0000E+00  0.0000E+00  0.0000E+00  0.0000E+00  0.0000E+00  0.0000E+00  0.0000E+00  0.0000E+00  0.0000E+00  0.0000E+00  0.0000E+00
    -41.686  0.0000E+00  0.0000E+00  0.0000E+00  0.0000E+00  0.0000E+00  0.0000E+00  0.0000E+00  0.0000E+00  0.0000E+00  0.0000E+00  0.0000E+00  0.0000E+00  0.0000E+00  0.0000E+00  0.0000E+00  0.0000E+00  0.0000E+00  0.0000E+00
    -41.500  0.0000E+00  0.0000E+00  0.0000E+00  0.0000E+00  0.0000E+00  0.0000E+00  0.0000E+00  0.0000E+00  0.0000E+00  0.0000E+00  0.0000E+00  0.0000E+00  0.0000E+00  0.0000E+00  0.0000E+00  0.0000E+00  0.0000E+00  0.0000E+00
    -41.313  0.0000E+00  0.0000E+00  0.0000E+00  0.0000E+00  0.0000E+00  0.0000E+00  0.0000E+00  0.0000E+00  0.0000E+00  0.0000E+00  0.0000E+00  0.0000E+00  0.0000E+00  0.0000E+00  0.0000E+00  0.0000E+00  0.0000E+00  0.0000E+00
    -41.127  0.0000E+00  0.0000E+00  0.0000E+00  0.0000E+00  0.0000E+00  0.0000E+00  0.0000E+00  0.0000E+00  0.0000E+00  0.0000E+00  0.0000E+00  0.0000E+00  0.0000E+00  0.0000E+00  0.0000E+00  0.0000E+00  0.0000E+00  0.0000E+00
    -40.941  0.0000E+00  0.0000E+00  0.0000E+00  0.0000E+00  0.0000E+00  0.0000E+00  0.0000E+00  0.0000E+00  0.0000E+00  0.0000E+00  0.0000E+00  0.0000E+00  0.0000E+00  0.0000E+00  0.0000E+00  0.0000E+00  0.0000E+00  0.0000E+00
    -40.754  0.0000E+00  0.0000E+00  0.0000E+00  0.0000E+00  0.0000E+00  0.0000E+00  0.0000E+00  0.0000E+00  0.0000E+00  0.0000E+00  0.0000E+00  0.0000E+00  0.0000E+00  0.0000E+00  0.0000E+00  0.0000E+00  0.0000E+00  0.0000E+00
    -40.568  0.0000E+00  0.0000E+00  0.0000E+00  0.0000E+00  0.0000E+00  0.0000E+00  0.0000E+00  0.0000E+00  0.0000E+00  0.0000E+00  0.0000E+00  0.0000E+00  0.0000E+00  0.0000E+00  0.0000E+00  0.0000E+00  0.0000E+00  0.0000E+00
    -40.382  0.0000E+00  0.0000E+00  0.0000E+00  0.0000E+00  0.0000E+00  0.0000E+00  0.0000E+00  0.0000E+00  0.0000E+00  0.0000E+00  0.0000E+00  0.0000E+00  0.0000E+00  0.0000E+00  0.0000E+00  0.0000E+00  0.0000E+00  0.0000E+00
    -40.196  0.0000E+00  0.0000E+00  0.0000E+00  0.0000E+00  0.0000E+00  0.0000E+00  0.0000E+00  0.0000E+00  0.0000E+00  0.0000E+00  0.0000E+00  0.0000E+00  0.0000E+00  0.0000E+00  0.0000E+00  0.0000E+00  0.0000E+00  0.0000E+00
    -40.009  0.1929E-10  0.1929E-10  0.2566E-03  0.2567E-03  0.2506E-03  0.2507E-03  0.2566E-03  0.2567E-03  0.2107E-11  0.2112E-11  0.1664E-12  0.1666E-12  0.1238E-11  0.1241E-11  0.1664E-12  0.1666E-12  0.2107E-11  0.2112E-11
    -39.823  0.7798E-09  0.7800E-09  0.1037E-01  0.1038E-01  0.1013E-01  0.1013E-01  0.1037E-01  0.1038E-01  0.8517E-10  0.8537E-10  0.6728E-11  0.6733E-11  0.5004E-10  0.5017E-10  0.6728E-11  0.6733E-11  0.8517E-10  0.8537E-10
    -39.637  0.2983E-07  0.2984E-07  0.3975E+00  0.3977E+00  0.3890E+00  0.3892E+00  0.3975E+00  0.3977E+00  0.3264E-08  0.3272E-08  0.2580E-09  0.2582E-09  0.1915E-08  0.1919E-08  0.2580E-09  0.2582E-09  0.3264E-08  0.3272E-08
    -39.450  0.2741E-06  0.2740E-06  0.3720E+01  0.3721E+01  0.3711E+01  0.3711E+01  0.3720E+01  0.3721E+01  0.3061E-07  0.3066E-07  0.2429E-08  0.2430E-08  0.1762E-07  0.1765E-07  0.2429E-08  0.2430E-08  0.3061E-07  0.3066E-07
    -39.264  0.8397E-07  0.8388E-07  0.1167E+01  0.1166E+01  0.1186E+01  0.1185E+01  0.1167E+01  0.1166E+01  0.9609E-08  0.9619E-08  0.7645E-09  0.7646E-09  0.5406E-08  0.5413E-08  0.7645E-09  0.7646E-09  0.9609E-08  0.9619E-08
    -39.078  0.0000E+00  0.0000E+00  0.0000E+00  0.0000E+00  0.0000E+00  0.0000E+00  0.0000E+00  0.0000E+00  0.0000E+00  0.0000E+00  0.0000E+00  0.0000E+00  0.0000E+00  0.0000E+00  0.0000E+00  0.0000E+00  0.0000E+00  0.0000E+00
    -38.891  0.0000E+00  0.0000E+00  0.0000E+00  0.0000E+00  0.0000E+00  0.0000E+00  0.0000E+00  0.0000E+00  0.0000E+00  0.0000E+00  0.0000E+00  0.0000E+00  0.0000E+00  0.0000E+00  0.0000E+00  0.0000E+00  0.0000E+00  0.0000E+00
    -38.705  0.0000E+00  0.0000E+00  0.0000E+00  0.0000E+00  0.0000E+00  0.0000E+00  0.0000E+00  0.0000E+00  0.0000E+00  0.0000E+00  0.0000E+00  0.0000E+00  0.0000E+00  0.0000E+00  0.0000E+00  0.0000E+00  0.0000E+00  0.0000E+00
    -38.519  0.0000E+00  0.0000E+00  0.0000E+00  0.0000E+00  0.0000E+00  0.0000E+00  0.0000E+00  0.0000E+00  0.0000E+00  0.0000E+00  0.0000E+00  0.0000E+00  0.0000E+00  0.0000E+00  0.0000E+00  0.0000E+00  0.0000E+00  0.0000E+00
    -38.333  0.0000E+00  0.0000E+00  0.0000E+00  0.0000E+00  0.0000E+00  0.0000E+00  0.0000E+00  0.0000E+00  0.0000E+00  0.0000E+00  0.0000E+00  0.0000E+00  0.0000E+00  0.0000E+00  0.0000E+00  0.0000E+00  0.0000E+00  0.0000E+00
    -38.146  0.0000E+00  0.0000E+00  0.0000E+00  0.0000E+00  0.0000E+00  0.0000E+00  0.0000E+00  0.0000E+00  0.0000E+00  0.0000E+00  0.0000E+00  0.0000E+00  0.0000E+00  0.0000E+00  0.0000E+00  0.0000E+00  0.0000E+00  0.0000E+00
    -37.960  0.0000E+00  0.0000E+00  0.0000E+00  0.0000E+00  0.0000E+00  0.0000E+00  0.0000E+00  0.0000E+00  0.0000E+00  0.0000E+00  0.0000E+00  0.0000E+00  0.0000E+00  0.0000E+00  0.0000E+00  0.0000E+00  0.0000E+00  0.0000E+00
    -37.774  0.0000E+00  0.0000E+00  0.0000E+00  0.0000E+00  0.0000E+00  0.0000E+00  0.0000E+00  0.0000E+00  0.0000E+00  0.0000E+00  0.0000E+00  0.0000E+00  0.0000E+00  0.0000E+00  0.0000E+00  0.0000E+00  0.0000E+00  0.0000E+00
    -37.587  0.0000E+00  0.0000E+00  0.0000E+00  0.0000E+00  0.0000E+00  0.0000E+00  0.0000E+00  0.0000E+00  0.0000E+00  0.0000E+00  0.0000E+00  0.0000E+00  0.0000E+00  0.0000E+00  0.0000E+00  0.0000E+00  0.0000E+00  0.0000E+00
    -37.401  0.0000E+00  0.0000E+00  0.0000E+00  0.0000E+00  0.0000E+00  0.0000E+00  0.0000E+00  0.0000E+00  0.0000E+00  0.0000E+00  0.0000E+00  0.0000E+00  0.0000E+00  0.0000E+00  0.0000E+00  0.0000E+00  0.0000E+00  0.0000E+00
    -37.215  0.0000E+00  0.0000E+00  0.0000E+00  0.0000E+00  0.0000E+00  0.0000E+00  0.0000E+00  0.0000E+00  0.0000E+00  0.0000E+00  0.0000E+00  0.0000E+00  0.0000E+00  0.0000E+00  0.0000E+00  0.0000E+00  0.0000E+00  0.0000E+00
    -37.028  0.0000E+00  0.0000E+00  0.0000E+00  0.0000E+00  0.0000E+00  0.0000E+00  0.0000E+00  0.0000E+00  0.0000E+00  0.0000E+00  0.0000E+00  0.0000E+00  0.0000E+00  0.0000E+00  0.0000E+00  0.0000E+00  0.0000E+00  0.0000E+00
    -36.842  0.0000E+00  0.0000E+00  0.0000E+00  0.0000E+00  0.0000E+00  0.0000E+00  0.0000E+00  0.0000E+00  0.0000E+00  0.0000E+00  0.0000E+00  0.0000E+00  0.0000E+00  0.0000E+00  0.0000E+00  0.0000E+00  0.0000E+00  0.0000E+00
    -36.656  0.0000E+00  0.0000E+00  0.0000E+00  0.0000E+00  0.0000E+00  0.0000E+00  0.0000E+00  0.0000E+00  0.0000E+00  0.0000E+00  0.0000E+00  0.0000E+00  0.0000E+00  0.0000E+00  0.0000E+00  0.0000E+00  0.0000E+00  0.0000E+00
    -36.470  0.0000E+00  0.0000E+00  0.0000E+00  0.0000E+00  0.0000E+00  0.0000E+00  0.0000E+00  0.0000E+00  0.0000E+00  0.0000E+00  0.0000E+00  0.0000E+00  0.0000E+00  0.0000E+00  0.0000E+00  0.0000E+00  0.0000E+00  0.0000E+00
    -36.283  0.0000E+00  0.0000E+00  0.0000E+00  0.0000E+00  0.0000E+00  0.0000E+00  0.0000E+00  0.0000E+00  0.0000E+00  0.0000E+00  0.0000E+00  0.0000E+00  0.0000E+00  0.0000E+00  0.0000E+00  0.0000E+00  0.0000E+00  0.0000E+00
    -36.097  0.0000E+00  0.0000E+00  0.0000E+00  0.0000E+00  0.0000E+00  0.0000E+00  0.0000E+00  0.0000E+00  0.0000E+00  0.0000E+00  0.0000E+00  0.0000E+00  0.0000E+00  0.0000E+00  0.0000E+00  0.0000E+00  0.0000E+00  0.0000E+00
    -35.911  0.0000E+00  0.0000E+00  0.0000E+00  0.0000E+00  0.0000E+00  0.0000E+00  0.0000E+00  0.0000E+00  0.0000E+00  0.0000E+00  0.0000E+00  0.0000E+00  0.0000E+00  0.0000E+00  0.0000E+00  0.0000E+00  0.0000E+00  0.0000E+00
    -35.724  0.0000E+00  0.0000E+00  0.0000E+00  0.0000E+00  0.0000E+00  0.0000E+00  0.0000E+00  0.0000E+00  0.0000E+00  0.0000E+00  0.0000E+00  0.0000E+00  0.0000E+00  0.0000E+00  0.0000E+00  0.0000E+00  0.0000E+00  0.0000E+00
    -35.538  0.0000E+00  0.0000E+00  0.0000E+00  0.0000E+00  0.0000E+00  0.0000E+00  0.0000E+00  0.0000E+00  0.0000E+00  0.0000E+00  0.0000E+00  0.0000E+00  0.0000E+00  0.0000E+00  0.0000E+00  0.0000E+00  0.0000E+00  0.0000E+00
    -35.352  0.0000E+00  0.0000E+00  0.0000E+00  0.0000E+00  0.0000E+00  0.0000E+00  0.0000E+00  0.0000E+00  0.0000E+00  0.0000E+00  0.0000E+00  0.0000E+00  0.0000E+00  0.0000E+00  0.0000E+00  0.0000E+00  0.0000E+00  0.0000E+00
    -35.166  0.0000E+00  0.0000E+00  0.0000E+00  0.0000E+00  0.0000E+00  0.0000E+00  0.0000E+00  0.0000E+00  0.0000E+00  0.0000E+00  0.0000E+00  0.0000E+00  0.0000E+00  0.0000E+00  0.0000E+00  0.0000E+00  0.0000E+00  0.0000E+00
    -34.979  0.0000E+00  0.0000E+00  0.0000E+00  0.0000E+00  0.0000E+00  0.0000E+00  0.0000E+00  0.0000E+00  0.0000E+00  0.0000E+00  0.0000E+00  0.0000E+00  0.0000E+00  0.0000E+00  0.0000E+00  0.0000E+00  0.0000E+00  0.0000E+00
    -34.793  0.0000E+00  0.0000E+00  0.0000E+00  0.0000E+00  0.0000E+00  0.0000E+00  0.0000E+00  0.0000E+00  0.0000E+00  0.0000E+00  0.0000E+00  0.0000E+00  0.0000E+00  0.0000E+00  0.0000E+00  0.0000E+00  0.0000E+00  0.0000E+00
    -34.607  0.0000E+00  0.0000E+00  0.0000E+00  0.0000E+00  0.0000E+00  0.0000E+00  0.0000E+00  0.0000E+00  0.0000E+00  0.0000E+00  0.0000E+00  0.0000E+00  0.0000E+00  0.0000E+00  0.0000E+00  0.0000E+00  0.0000E+00  0.0000E+00
    -34.420  0.0000E+00  0.0000E+00  0.0000E+00  0.0000E+00  0.0000E+00  0.0000E+00  0.0000E+00  0.0000E+00  0.0000E+00  0.0000E+00  0.0000E+00  0.0000E+00  0.0000E+00  0.0000E+00  0.0000E+00  0.0000E+00  0.0000E+00  0.0000E+00
    -34.234  0.0000E+00  0.0000E+00  0.0000E+00  0.0000E+00  0.0000E+00  0.0000E+00  0.0000E+00  0.0000E+00  0.0000E+00  0.0000E+00  0.0000E+00  0.0000E+00  0.0000E+00  0.0000E+00  0.0000E+00  0.0000E+00  0.0000E+00  0.0000E+00
    -34.048  0.0000E+00  0.0000E+00  0.0000E+00  0.0000E+00  0.0000E+00  0.0000E+00  0.0000E+00  0.0000E+00  0.0000E+00  0.0000E+00  0.0000E+00  0.0000E+00  0.0000E+00  0.0000E+00  0.0000E+00  0.0000E+00  0.0000E+00  0.0000E+00
    -33.861  0.0000E+00  0.0000E+00  0.0000E+00  0.0000E+00  0.0000E+00  0.0000E+00  0.0000E+00  0.0000E+00  0.0000E+00  0.0000E+00  0.0000E+00  0.0000E+00  0.0000E+00  0.0000E+00  0.0000E+00  0.0000E+00  0.0000E+00  0.0000E+00
    -33.675  0.0000E+00  0.0000E+00  0.0000E+00  0.0000E+00  0.0000E+00  0.0000E+00  0.0000E+00  0.0000E+00  0.0000E+00  0.0000E+00  0.0000E+00  0.0000E+00  0.0000E+00  0.0000E+00  0.0000E+00  0.0000E+00  0.0000E+00  0.0000E+00
    -33.489  0.0000E+00  0.0000E+00  0.0000E+00  0.0000E+00  0.0000E+00  0.0000E+00  0.0000E+00  0.0000E+00  0.0000E+00  0.0000E+00  0.0000E+00  0.0000E+00  0.0000E+00  0.0000E+00  0.0000E+00  0.0000E+00  0.0000E+00  0.0000E+00
    -33.303  0.0000E+00  0.0000E+00  0.0000E+00  0.0000E+00  0.0000E+00  0.0000E+00  0.0000E+00  0.0000E+00  0.0000E+00  0.0000E+00  0.0000E+00  0.0000E+00  0.0000E+00  0.0000E+00  0.0000E+00  0.0000E+00  0.0000E+00  0.0000E+00
    -33.116  0.0000E+00  0.0000E+00  0.0000E+00  0.0000E+00  0.0000E+00  0.0000E+00  0.0000E+00  0.0000E+00  0.0000E+00  0.0000E+00  0.0000E+00  0.0000E+00  0.0000E+00  0.0000E+00  0.0000E+00  0.0000E+00  0.0000E+00  0.0000E+00
    -32.930  0.0000E+00  0.0000E+00  0.0000E+00  0.0000E+00  0.0000E+00  0.0000E+00  0.0000E+00  0.0000E+00  0.0000E+00  0.0000E+00  0.0000E+00  0.0000E+00  0.0000E+00  0.0000E+00  0.0000E+00  0.0000E+00  0.0000E+00  0.0000E+00
    -32.744  0.0000E+00  0.0000E+00  0.0000E+00  0.0000E+00  0.0000E+00  0.0000E+00  0.0000E+00  0.0000E+00  0.0000E+00  0.0000E+00  0.0000E+00  0.0000E+00  0.0000E+00  0.0000E+00  0.0000E+00  0.0000E+00  0.0000E+00  0.0000E+00