   9   9   1   0
  0.2001662E+02  0.3421528E-09  0.3421528E-09  0.1776897E-08  0.5000000E-15
  1.000000000000000E-004
  CAR 
 unknown system                          
     14.32556771    -41.37517517  301      1.88863622      1.00000000
    -41.375  0.0000E+00  0.0000E+00  0.0000E+00  0.0000E+00
    -41.190  0.0000E+00  0.0000E+00  0.0000E+00  0.0000E+00
    -41.004  0.0000E+00  0.0000E+00  0.0000E+00  0.0000E+00
    -40.818  0.0000E+00  0.0000E+00  0.0000E+00  0.0000E+00
    -40.632  0.0000E+00  0.0000E+00  0.0000E+00  0.0000E+00
    -40.447  0.0000E+00  0.0000E+00  0.0000E+00  0.0000E+00
    -40.261  0.0000E+00  0.0000E+00  0.0000E+00  0.0000E+00
    -40.075  0.0000E+00  0.0000E+00  0.0000E+00  0.0000E+00
    -39.890  0.0000E+00  0.0000E+00  0.0000E+00  0.0000E+00
    -39.704  0.0000E+00  0.0000E+00  0.0000E+00  0.0000E+00
    -39.518  0.0000E+00  0.0000E+00  0.0000E+00  0.0000E+00
    -39.333  0.2243E-02  0.2240E-02  0.4165E-03  0.4160E-03
    -39.147  0.8955E-01  0.8943E-01  0.1704E-01  0.1702E-01
    -38.961  0.3404E+01  0.3400E+01  0.6491E+00  0.6483E+00
    -38.776  0.3335E+02  0.3334E+02  0.6841E+01  0.6838E+01
    -38.590  0.1126E+02  0.1127E+02  0.8931E+01  0.8931E+01
    -38.404  0.0000E+00  0.0000E+00  0.9000E+01  0.9000E+01
    -38.219  0.0000E+00  0.0000E+00  0.9000E+01  0.9000E+01
    -38.033  0.0000E+00  0.0000E+00  0.9000E+01  0.9000E+01
    -37.847  0.0000E+00  0.0000E+00  0.9000E+01  0.9000E+01
    -37.662  0.0000E+00  0.0000E+00  0.9000E+01  0.9000E+01
    -37.476  0.0000E+00  0.0000E+00  0.9000E+01  0.9000E+01
    -37.290  0.0000E+00  0.0000E+00  0.9000E+01  0.9000E+01
    -37.105  0.0000E+00  0.0000E+00  0.9000E+01  0.9000E+01
    -36.919  0.0000E+00  0.0000E+00  0.9000E+01  0.9000E+01
    -36.733  0.0000E+00  0.0000E+00  0.9000E+01  0.9000E+01
    -36.548  0.0000E+00  0.0000E+00  0.9000E+01  0.9000E+01
    -36.362  0.0000E+00  0.0000E+00  0.9000E+01  0.9000E+01
    -36.176  0.0000E+00  0.0000E+00  0.9000E+01  0.9000E+01
    -35.991  0.0000E+00  0.0000E+00  0.9000E+01  0.9000E+01
    -35.805  0.0000E+00  0.0000E+00  0.9000E+01  0.9000E+01
    -35.619  0.0000E+00  0.0000E+00  0.9000E+01  0.9000E+01
    -35.434  0.0000E+00  0.0000E+00  0.9000E+01  0.9000E+01
    -35.248  0.0000E+00  0.0000E+00  0.9000E+01  0.9000E+01
    -35.062  0.0000E+00  0.0000E+00  0.9000E+01  0.9000E+01
    -34.877  0.0000E+00  0.0000E+00  0.9000E+01  0.9000E+01
    -34.691  0.0000E+00  0.0000E+00  0.9000E+01  0.9000E+01
    -34.505  0.0000E+00  0.0000E+00  0.9000E+01  0.9000E+01
    -34.320  0.0000E+00  0.0000E+00  0.9000E+01  0.9000E+01
    -34.134  0.0000E+00  0.0000E+00  0.9000E+01  0.9000E+01
    -33.948  0.0000E+00  0.0000E+00  0.9000E+01  0.9000E+01
    -33.763  0.0000E+00  0.0000E+00  0.9000E+01  0.9000E+01
    -33.577  0.0000E+00  0.0000E+00  0.9000E+01  0.9000E+01
    -33.391  0.0000E+00  0.0000E+00  0.9000E+01  0.9000E+01
    -33.206  0.0000E+00  0.0000E+00  0.9000E+01  0.9000E+01
    -33.020  0.0000E+00  0.0000E+00  0.9000E+01  0.9000E+01
    -32.834  0.0000E+00  0.0000E+00  0.9000E+01  0.9000E+01
    -32.649  0.0000E+00  0.0000E+00  0.9000E+01  0.9000E+01
    -32.463  0.0000E+00  0.0000E+00  0.9000E+01  0.9000E+01
    -32.277  0.0000E+00  0.0000E+00  0.9000E+01  0.9000E+01
    -32.092  0.0000E+00  0.0000E+00  0.9000E+01  0.9000E+01
    -31.906  0.0000E+00  0.0000E+00  0.9000E+01  0.9000E+01
    -31.720  0.0000E+00  0.0000E+00  0.9000E+01  0.9000E+01
    -31.535  0.0000E+00  0.0000E+00  0.9000E+01  0.9000E+01
    -31.349  0.0000E+00  0.0000E+00  0.9000E+01  0.9000E+01
    -31.163  0.0000E+00  0.0000E+00  0.9000E+01  0.9000E+01
    -30.978  0.0000E+00  0.0000E+00  0.9000E+01  0.9000E+01
    -30.792  0.0000E+00  0.0000E+00  0.9000E+01  0.9000E+01
    -30.606  0.0000E+00  0.0000E+00  0.9000E+01  0.9000E+01
    -30.421  0.0000E+00  0.0000E+00  0.9000E+01  0.9000E+01
    -30.235  0.0000E+00  0.0000E+00  0.9000E+01  0.9000E+01
    -30.049  0.0000E+00  0.0000E+00  0.9000E+01  0.9000E+01
    -29.864  0.0000E+00  0.0000E+00  0.9000E+01  0.9000E+01
    -29.678  0.0000E+00  0.0000E+00  0.9000E+01  0.9000E+01
    -29.492  0.0000E+00  0.0000E+00  0.9000E+01  0.9000E+01
    -29.307  0.0000E+00  0.0000E+00  0.9000E+01  0.9000E+01
    -29.121  0.0000E+00  0.0000E+00  0.9000E+01  0.9000E+01
    -28.935  0.0000E+00  0.0000E+00  0.9000E+01  0.9000E+01
    -28.750  0.0000E+00  0.0000E+00  0.9000E+01  0.9000E+01
    -28.564  0.0000E+00  0.0000E+00  0.9000E+01  0.9000E+01
    -28.378  0.0000E+00  0.0000E+00  0.9000E+01  0.9000E+01
    -28.193  0.0000E+00  0.0000E+00  0.9000E+01  0.9000E+01
    -28.007  0.0000E+00  0.0000E+00  0.9000E+01  0.9000E+01
    -27.821  0.0000E+00  0.0000E+00  0.9000E+01  0.9000E+01
    -27.636  0.0000E+00  0.0000E+00  0.9000E+01  0.9000E+01
    -27.450  0.0000E+00  0.0000E+00  0.9000E+01  0.9000E+01
    -27.264  0.0000E+00  0.0000E+00  0.9000E+01  0.9000E+01
    -27.079  0.0000E+00  0.0000E+00  0.9000E+01  0.9000E+01
    -26.893  0.0000E+00  0.0000E+00  0.9000E+01  0.9000E+01
    -26.707  0.0000E+00  0.0000E+00  0.9000E+01  0.9000E+01
    -26.522  0.0000E+00  0.0000E+00  0.9000E+01  0.9000E+01
    -26.336  0.0000E+00  0.0000E+00  0.9000E+01  0.9000E+01
    -26.150  0.0000E+00  0.0000E+00  0.9000E+01  0.9000E+01
    -25.965  0.0000E+00  0.0000E+00  0.9000E+01  0.9000E+01
    -25.779  0.0000E+00  0.0000E+00  0.9000E+01  0.9000E+01
    -25.593  0.0000E+00  0.0000E+00  0.9000E+01  0.9000E+01
    -25.408  0.0000E+00  0.0000E+00  0.9000E+01  0.9000E+01
    -25.222  0.0000E+00  0.0000E+00  0.9000E+01  0.9000E+01
    -25.036  0.0000E+00  0.0000E+00  0.9000E+01  0.9000E+01
    -24.851  0.0000E+00  0.0000E+00  0.9000E+01  0.9000E+01
    -24.665  0.0000E+00  0.0000E+00  0.9000E+01  0.9000E+01
    -24.479  0.0000E+00  0.0000E+00  0.9000E+01  0.9000E+01
    -24.294  0.0000E+00  0.0000E+00  0.9000E+01  0.9000E+01
    -24.108  0.0000E+00  0.0000E+00  0.9000E+01  0.9000E+01
    -23.922  0.0000E+00  0.0000E+00  0.9000E+01  0.9000E+01
    -23.737  0.0000E+00  0.0000E+00  0.9000E+01  0.9000E+01
    -23.551  0.0000E+00  0.0000E+00  0.9000E+01  0.9000E+01
    -23.365  0.0000E+00  0.0000E+00  0.9000E+01  0.9000E+01
    -23.180  0.0000E+00  0.0000E+00  0.9000E+01  0.9000E+01
    -22.994  0.0000E+00  0.0000E+00  0.9000E+01  0.9000E+01
    -22.808  0.0000E+00  0.0000E+00  0.9000E+01  0.9000E+01
    -22.623  0.0000E+00  0.0000E+00  0.9000E+01  0.9000E+01
    -22.437  0.0000E+00  0.0000E+00  0.9000E+01  0.9000E+01
    -22.251  0.0000E+00  0.0000E+00  0.9000E+01  0.9000E+01
    -22.066  0.0000E+00  0.0000E+00  0.9000E+01  0.9000E+01
    -21.880  0.0000E+00  0.0000E+00  0.9000E+01  0.9000E+01
    -21.694  0.0000E+00  0.0000E+00  0.9000E+01  0.9000E+01
    -21.509  0.0000E+00  0.0000E+00  0.9000E+01  0.9000E+01
    -21.323  0.0000E+00  0.0000E+00  0.9000E+01  0.9000E+01
    -21.137  0.0000E+00  0.0000E+00  0.9000E+01  0.9000E+01
    -20.952  0.0000E+00  0.0000E+00  0.9000E+01  0.9000E+01
    -20.766  0.0000E+00  0.0000E+00  0.9000E+01  0.9000E+01
    -20.580  0.0000E+00  0.0000E+00  0.9000E+01  0.9000E+01
    -20.395  0.0000E+00  0.0000E+00  0.9000E+01  0.9000E+01
    -20.209  0.0000E+00  0.0000E+00  0.9000E+01  0.9000E+01
    -20.023  0.0000E+00  0.0000E+00  0.9000E+01  0.9000E+01
    -19.838  0.0000E+00  0.0000E+00  0.9000E+01  0.9000E+01
    -19.652  0.0000E+00  0.0000E+00  0.9000E+01  0.9000E+01
    -19.466  0.0000E+00  0.0000E+00  0.9000E+01  0.9000E+01
    -19.281  0.0000E+00  0.0000E+00  0.9000E+01  0.9000E+01
    -19.095  0.0000E+00  0.0000E+00  0.9000E+01  0.9000E+01
    -18.909  0.0000E+00  0.0000E+00  0.9000E+01  0.9000E+01
    -18.724  0.0000E+00  0.0000E+00  0.9000E+01  0.9000E+01
    -18.538  0.0000E+00  0.0000E+00  0.9000E+01  0.9000E+01
    -18.352  0.0000E+00  0.0000E+00  0.9000E+01  0.9000E+01
    -18.167  0.0000E+00  0.0000E+00  0.9000E+01  0.9000E+01
    -17.981  0.0000E+00  0.0000E+00  0.9000E+01  0.9000E+01
    -17.795  0.0000E+00  0.0000E+00  0.9000E+01  0.9000E+01
    -17.610  0.0000E+00  0.0000E+00  0.9000E+01  0.9000E+01
    -17.424  0.0000E+00  0.0000E+00  0.9000E+01  0.9000E+01
    -17.238  0.0000E+00  0.0000E+00  0.9000E+01  0.9000E+01
    -17.053  0.0000E+00  0.0000E+00  0.9000E+01  0.9000E+01
    -16.867  0.0000E+00  0.0000E+00  0.9000E+01  0.9000E+01
    -16.681  0.0000E+00  0.0000E+00  0.9000E+01  0.9000E+01
    -16.496  0.0000E+00  0.0000E+00  0.9000E+01  0.9000E+01
    -16.310  0.0000E+00  0.0000E+00  0.9000E+01  0.9000E+01
    -16.124  0.0000E+00  0.0000E+00  0.9000E+01  0.9000E+01
    -15.939  0.0000E+00  0.0000E+00  0.9000E+01  0.9000E+01
    -15.753  0.0000E+00  0.0000E+00  0.9000E+01  0.9000E+01
    -15.567  0.0000E+00  0.0000E+00  0.9000E+01  0.9000E+01
    -15.381  0.0000E+00  0.0000E+00  0.9000E+01  0.9000E+01
    -15.196  0.0000E+00  0.0000E+00  0.9000E+01  0.9000E+01
    -15.010  0.0000E+00  0.0000E+00  0.9000E+01  0.9000E+01
    -14.824  0.0000E+00  0.0000E+00  0.9000E+01  0.9000E+01
    -14.639  0.0000E+00  0.0000E+00  0.9000E+01  0.9000E+01
    -14.453  0.0000E+00  0.0000E+00  0.9000E+01  0.9000E+01
    -14.267  0.1128E-05  0.1110E-05  0.9000E+01  0.9000E+01
    -14.082  0.8519E-04  0.8383E-04  0.9000E+01  0.9000E+01
    -13.896  0.3720E-02  0.3661E-02  0.9001E+01  0.9001E+01
    -13.710  0.1123E+00  0.1109E+00  0.9022E+01  0.9021E+01
    -13.525  0.9185E+00  0.9125E+00  0.9192E+01  0.9191E+01
    -13.339  0.1355E+01  0.1359E+01  0.9444E+01  0.9443E+01
    -13.153  0.1858E+01  0.1850E+01  0.9789E+01  0.9787E+01
    -12.968  0.1930E+01  0.1937E+01  0.1015E+02  0.1015E+02
    -12.782  0.2201E+01  0.2187E+01  0.1056E+02  0.1056E+02
    -12.596  0.4050E+01  0.4050E+01  0.1131E+02  0.1131E+02
    -12.411  0.6398E+01  0.6382E+01  0.1250E+02  0.1249E+02
    -12.225  0.1008E+02  0.1007E+02  0.1437E+02  0.1437E+02
    -12.039  0.3223E+01  0.3257E+01  0.1498E+02  0.1498E+02
    -11.854  0.3292E-01  0.3342E-01  0.1500E+02  0.1500E+02
    -11.668  0.0000E+00  0.0000E+00  0.1500E+02  0.1500E+02
    -11.482  0.0000E+00  0.0000E+00  0.1500E+02  0.1500E+02
    -11.297  0.0000E+00  0.0000E+00  0.1500E+02  0.1500E+02
    -11.111  0.0000E+00  0.0000E+00  0.1500E+02  0.1500E+02
    -10.925  0.0000E+00  0.0000E+00  0.1500E+02  0.1500E+02
    -10.740  0.0000E+00  0.0000E+00  0.1500E+02  0.1500E+02
    -10.554  0.0000E+00  0.0000E+00  0.1500E+02  0.1500E+02
    -10.368  0.0000E+00  0.0000E+00  0.1500E+02  0.1500E+02
    -10.183  0.0000E+00  0.0000E+00  0.1500E+02  0.1500E+02
     -9.997  0.0000E+00  0.0000E+00  0.1500E+02  0.1500E+02
     -9.811  0.0000E+00  0.0000E+00  0.1500E+02  0.1500E+02
     -9.626  0.0000E+00  0.0000E+00  0.1500E+02  0.1500E+02
     -9.440  0.0000E+00  0.0000E+00  0.1500E+02  0.1500E+02
     -9.254  0.0000E+00  0.0000E+00  0.1500E+02  0.1500E+02
     -9.069  0.0000E+00  0.0000E+00  0.1500E+02  0.1500E+02
     -8.883  0.0000E+00  0.0000E+00  0.1500E+02  0.1500E+02
     -8.697  0.0000E+00  0.0000E+00  0.1500E+02  0.1500E+02
     -8.512  0.0000E+00  0.0000E+00  0.1500E+02  0.1500E+02
     -8.326  0.0000E+00  0.0000E+00  0.1500E+02  0.1500E+02
     -8.140  0.0000E+00  0.0000E+00  0.1500E+02  0.1500E+02
     -7.955  0.0000E+00  0.0000E+00  0.1500E+02  0.1500E+02
     -7.769  0.0000E+00  0.0000E+00  0.1500E+02  0.1500E+02
     -7.583  0.0000E+00  0.0000E+00  0.1500E+02  0.1500E+02
     -7.398  0.0000E+00  0.0000E+00  0.1500E+02  0.1500E+02
     -7.212  0.0000E+00  0.0000E+00  0.1500E+02  0.1500E+02
     -7.026  0.0000E+00  0.0000E+00  0.1500E+02  0.1500E+02
     -6.841  0.0000E+00  0.0000E+00  0.1500E+02  0.1500E+02
     -6.655  0.0000E+00  0.0000E+00  0.1500E+02  0.1500E+02
     -6.469  0.0000E+00  0.0000E+00  0.1500E+02  0.1500E+02
     -6.284  0.0000E+00  0.0000E+00  0.1500E+02  0.1500E+02
     -6.098  0.0000E+00  0.0000E+00  0.1500E+02  0.1500E+02
     -5.912  0.0000E+00  0.0000E+00  0.1500E+02  0.1500E+02
     -5.727  0.0000E+00  0.0000E+00  0.1500E+02  0.1500E+02
     -5.541  0.0000E+00  0.0000E+00  0.1500E+02  0.1500E+02
     -5.355  0.0000E+00  0.0000E+00  0.1500E+02  0.1500E+02
     -5.170  0.0000E+00  0.0000E+00  0.1500E+02  0.1500E+02
     -4.984  0.0000E+00  0.0000E+00  0.1500E+02  0.1500E+02
     -4.798  0.0000E+00  0.0000E+00  0.1500E+02  0.1500E+02
     -4.613  0.0000E+00  0.0000E+00  0.1500E+02  0.1500E+02
     -4.427  0.0000E+00  0.0000E+00  0.1500E+02  0.1500E+02
     -4.241  0.0000E+00  0.0000E+00  0.1500E+02  0.1500E+02
     -4.056  0.0000E+00  0.0000E+00  0.1500E+02  0.1500E+02
     -3.870  0.0000E+00  0.0000E+00  0.1500E+02  0.1500E+02
     -3.684  0.2055E-03  0.2021E-03  0.1500E+02  0.1500E+02
     -3.499  0.8181E-02  0.8048E-02  0.1500E+02  0.1500E+02
     -3.313  0.2850E+00  0.2810E+00  0.1505E+02  0.1505E+02
     -3.127  0.2153E+01  0.2145E+01  0.1545E+02  0.1545E+02
     -2.942  0.1644E+01  0.1653E+01  0.1576E+02  0.1576E+02
     -2.756  0.3079E+01  0.3060E+01  0.1633E+02  0.1633E+02
     -2.570  0.4962E+01  0.4965E+01  0.1726E+02  0.1725E+02
     -2.385  0.6091E+01  0.6078E+01  0.1839E+02  0.1838E+02
     -2.199  0.6591E+01  0.6600E+01  0.1962E+02  0.1961E+02
     -2.013  0.2896E+01  0.2909E+01  0.2016E+02  0.2016E+02
     -1.828  0.1946E+01  0.1951E+01  0.2053E+02  0.2053E+02
     -1.642  0.9336E+00  0.9328E+00  0.2070E+02  0.2070E+02
     -1.456  0.1526E+01  0.1523E+01  0.2099E+02  0.2099E+02
     -1.271  0.3279E+01  0.3272E+01  0.2160E+02  0.2159E+02
     -1.085  0.3764E+01  0.3766E+01  0.2230E+02  0.2229E+02
     -0.899  0.3631E+01  0.3630E+01  0.2297E+02  0.2297E+02
     -0.714  0.5167E+01  0.5157E+01  0.2394E+02  0.2393E+02
     -0.528  0.5856E+01  0.5859E+01  0.2502E+02  0.2502E+02
     -0.342  0.3973E+01  0.3984E+01  0.2576E+02  0.2576E+02
     -0.157  0.5338E+01  0.5317E+01  0.2676E+02  0.2675E+02
      0.029  0.8565E+01  0.8576E+01  0.2835E+02  0.2835E+02
      0.215  0.7676E+01  0.7668E+01  0.2978E+02  0.2977E+02
      0.400  0.8609E+01  0.8615E+01  0.3138E+02  0.3138E+02
      0.586  0.5306E+01  0.5315E+01  0.3237E+02  0.3237E+02
      0.772  0.2644E+01  0.2651E+01  0.3286E+02  0.3286E+02
      0.957  0.6856E+00  0.6903E+00  0.3299E+02  0.3299E+02
      1.143  0.2019E-01  0.2041E-01  0.3300E+02  0.3300E+02
      1.329  0.0000E+00  0.0000E+00  0.3300E+02  0.3300E+02
      1.514  0.0000E+00  0.0000E+00  0.3300E+02  0.3300E+02
      1.700  0.0000E+00  0.0000E+00  0.3300E+02  0.3300E+02
      1.886  0.0000E+00  0.0000E+00  0.3300E+02  0.3300E+02
      2.071  0.0000E+00  0.0000E+00  0.3300E+02  0.3300E+02
      2.257  0.0000E+00  0.0000E+00  0.3300E+02  0.3300E+02
      2.443  0.0000E+00  0.0000E+00  0.3300E+02  0.3300E+02
      2.628  0.0000E+00  0.0000E+00  0.3300E+02  0.3300E+02
      2.814  0.0000E+00  0.0000E+00  0.3300E+02  0.3300E+02
      3.000  0.0000E+00  0.0000E+00  0.3300E+02  0.3300E+02
      3.185  0.0000E+00  0.0000E+00  0.3300E+02  0.3300E+02
      3.371  0.0000E+00  0.0000E+00  0.3300E+02  0.3300E+02
      3.557  0.0000E+00  0.0000E+00  0.3300E+02  0.3300E+02
      3.742  0.0000E+00  0.0000E+00  0.3300E+02  0.3300E+02
      3.928  0.0000E+00  0.0000E+00  0.3300E+02  0.3300E+02
      4.114  0.0000E+00  0.0000E+00  0.3300E+02  0.3300E+02
      4.299  0.0000E+00  0.0000E+00  0.3300E+02  0.3300E+02
      4.485  0.0000E+00  0.0000E+00  0.3300E+02  0.3300E+02
      4.671  0.0000E+00  0.0000E+00  0.3300E+02  0.3300E+02
      4.856  0.0000E+00  0.0000E+00  0.3300E+02  0.3300E+02
      5.042  0.0000E+00  0.0000E+00  0.3300E+02  0.3300E+02
      5.228  0.0000E+00  0.0000E+00  0.3300E+02  0.3300E+02
      5.413  0.0000E+00  0.0000E+00  0.3300E+02  0.3300E+02
      5.599  0.0000E+00  0.0000E+00  0.3300E+02  0.3300E+02
      5.785  0.0000E+00  0.0000E+00  0.3300E+02  0.3300E+02
      5.970  0.0000E+00  0.0000E+00  0.3300E+02  0.3300E+02
      6.156  0.0000E+00  0.0000E+00  0.3300E+02  0.3300E+02
      6.342  0.0000E+00  0.0000E+00  0.3300E+02  0.3300E+02
      6.527  0.0000E+00  0.0000E+00  0.3300E+02  0.3300E+02
      6.713  0.0000E+00  0.0000E+00  0.3300E+02  0.3300E+02
      6.899  0.0000E+00  0.0000E+00  0.3300E+02  0.3300E+02
      7.084  0.9898E-05  0.9822E-05  0.3300E+02  0.3300E+02
      7.270  0.3944E-03  0.3914E-03  0.3300E+02  0.3300E+02
      7.456  0.1410E-01  0.1401E-01  0.3300E+02  0.3300E+02
      7.641  0.8260E-01  0.8252E-01  0.3302E+02  0.3302E+02
      7.827  0.1001E+00  0.9809E-01  0.3304E+02  0.3304E+02
      8.013  0.5429E+00  0.5413E+00  0.3314E+02  0.3314E+02
      8.198  0.8985E+00  0.8944E+00  0.3330E+02  0.3330E+02
      8.384  0.1176E+01  0.1179E+01  0.3352E+02  0.3352E+02
      8.570  0.1204E+01  0.1200E+01  0.3375E+02  0.3375E+02
      8.755  0.1699E+01  0.1694E+01  0.3407E+02  0.3406E+02
      8.941  0.3273E+01  0.3254E+01  0.3467E+02  0.3467E+02
      9.127  0.4032E+01  0.4034E+01  0.3542E+02  0.3542E+02
      9.313  0.5377E+01  0.5379E+01  0.3643E+02  0.3642E+02
      9.498  0.4858E+01  0.4853E+01  0.3733E+02  0.3732E+02
      9.684  0.3779E+01  0.3786E+01  0.3804E+02  0.3803E+02
      9.870  0.2714E+01  0.2682E+01  0.3854E+02  0.3853E+02
     10.055  0.3470E+01  0.3492E+01  0.3919E+02  0.3918E+02
     10.241  0.5118E+01  0.5073E+01  0.4014E+02  0.4013E+02
     10.427  0.2786E+01  0.2828E+01  0.4066E+02  0.4065E+02
     10.612  0.1934E+01  0.1973E+01  0.4102E+02  0.4102E+02
     10.798  0.2331E+01  0.2329E+01  0.4146E+02  0.4146E+02
     10.984  0.3417E+01  0.3266E+01  0.4209E+02  0.4207E+02
     11.169  0.3317E+01  0.2931E+01  0.4271E+02  0.4261E+02
     11.355  0.2396E+01  0.2300E+01  0.4316E+02  0.4304E+02
     11.541  0.2251E+01  0.2233E+01  0.4358E+02  0.4346E+02
     11.726  0.1856E+01  0.1680E+01  0.4392E+02  0.4377E+02
     11.912  0.3982E+00  0.1082E+01  0.4400E+02  0.4398E+02
     12.098  0.0000E+00  0.1099E+00  0.4400E+02  0.4400E+02
     12.283  0.0000E+00  0.0000E+00  0.4400E+02  0.4400E+02
     12.469  0.0000E+00  0.0000E+00  0.4400E+02  0.4400E+02
     12.655  0.0000E+00  0.0000E+00  0.4400E+02  0.4400E+02
     12.840  0.0000E+00  0.0000E+00  0.4400E+02  0.4400E+02
     13.026  0.0000E+00  0.0000E+00  0.4400E+02  0.4400E+02
     13.212  0.0000E+00  0.0000E+00  0.4400E+02  0.4400E+02
     13.397  0.0000E+00  0.0000E+00  0.4400E+02  0.4400E+02
     13.583  0.0000E+00  0.0000E+00  0.4400E+02  0.4400E+02
     13.769  0.0000E+00  0.0000E+00  0.4400E+02  0.4400E+02
     13.954  0.0000E+00  0.0000E+00  0.4400E+02  0.4400E+02
     14.140  0.0000E+00  0.0000E+00  0.4400E+02  0.4400E+02
     14.326  0.0000E+00  0.0000E+00  0.4400E+02  0.4400E+02
     14.32556771    -41.37517517  301      1.88863622      1.00000000
    -41.375  0.0000E+00  0.0000E+00  0.0000E+00  0.0000E+00  0.0000E+00  0.0000E+00  0.0000E+00  0.0000E+00  0.0000E+00  0.0000E+00  0.0000E+00  0.0000E+00  0.0000E+00  0.0000E+00  0.0000E+00  0.0000E+00  0.0000E+00  0.0000E+00
    -41.190  0.0000E+00  0.0000E+00  0.0000E+00  0.0000E+00  0.0000E+00  0.0000E+00  0.0000E+00  0.0000E+00  0.0000E+00  0.0000E+00  0.0000E+00  0.0000E+00  0.0000E+00  0.0000E+00  0.0000E+00  0.0000E+00  0.0000E+00  0.0000E+00
    -41.004  0.0000E+00  0.0000E+00  0.0000E+00  0.0000E+00  0.0000E+00  0.0000E+00  0.0000E+00  0.0000E+00  0.0000E+00  0.0000E+00  0.0000E+00  0.0000E+00  0.0000E+00  0.0000E+00  0.0000E+00  0.0000E+00  0.0000E+00  0.0000E+00
    -40.818  0.0000E+00  0.0000E+00  0.0000E+00  0.0000E+00  0.0000E+00  0.0000E+00  0.0000E+00  0.0000E+00  0.0000E+00  0.0000E+00  0.0000E+00  0.0000E+00  0.0000E+00  0.0000E+00  0.0000E+00  0.0000E+00  0.0000E+00  0.0000E+00
    -40.632  0.0000E+00  0.0000E+00  0.0000E+00  0.0000E+00  0.0000E+00  0.0000E+00  0.0000E+00  0.0000E+00  0.0000E+00  0.0000E+00  0.0000E+00  0.0000E+00  0.0000E+00  0.0000E+00  0.0000E+00  0.0000E+00  0.0000E+00  0.0000E+00
    -40.447  0.0000E+00  0.0000E+00  0.0000E+00  0.0000E+00  0.0000E+00  0.0000E+00  0.0000E+00  0.0000E+00  0.0000E+00  0.0000E+00  0.0000E+00  0.0000E+00  0.0000E+00  0.0000E+00  0.0000E+00  0.0000E+00  0.0000E+00  0.0000E+00
    -40.261  0.0000E+00  0.0000E+00  0.0000E+00  0.0000E+00  0.0000E+00  0.0000E+00  0.0000E+00  0.0000E+00  0.0000E+00  0.0000E+00  0.0000E+00  0.0000E+00  0.0000E+00  0.0000E+00  0.0000E+00  0.0000E+00  0.0000E+00  0.0000E+00
    -40.075  0.0000E+00  0.0000E+00  0.0000E+00  0.0000E+00  0.0000E+00  0.0000E+00  0.0000E+00  0.0000E+00  0.0000E+00  0.0000E+00  0.0000E+00  0.0000E+00  0.0000E+00  0.0000E+00  0.0000E+00  0.0000E+00  0.0000E+00  0.0000E+00
    -39.890  0.0000E+00  0.0000E+00  0.0000E+00  0.0000E+00  0.0000E+00  0.0000E+00  0.0000E+00  0.0000E+00  0.0000E+00  0.0000E+00  0.0000E+00  0.0000E+00  0.0000E+00  0.0000E+00  0.0000E+00  0.0000E+00  0.0000E+00  0.0000E+00
    -39.704  0.0000E+00  0.0000E+00  0.0000E+00  0.0000E+00  0.0000E+00  0.0000E+00  0.0000E+00  0.0000E+00  0.0000E+00  0.0000E+00  0.0000E+00  0.0000E+00  0.0000E+00  0.0000E+00  0.0000E+00  0.0000E+00  0.0000E+00  0.0000E+00
    -39.518  0.0000E+00  0.0000E+00  0.0000E+00  0.0000E+00  0.0000E+00  0.0000E+00  0.0000E+00  0.0000E+00  0.0000E+00  0.0000E+00  0.0000E+00  0.0000E+00  0.0000E+00  0.0000E+00  0.0000E+00  0.0000E+00  0.0000E+00  0.0000E+00
    -39.333  0.3743E-10  0.3737E-10  0.2561E-03  0.2558E-03  0.2305E-03  0.2302E-03  0.2561E-03  0.2558E-03  0.5047E-11  0.5046E-11  0.3510E-12  0.3503E-12  0.3144E-11  0.3143E-11  0.3510E-12  0.3503E-12  0.5047E-11  0.5046E-11
    -39.147  0.1494E-08  0.1492E-08  0.1022E-01  0.1021E-01  0.9204E-02  0.9188E-02  0.1022E-01  0.1021E-01  0.2015E-09  0.2014E-09  0.1401E-10  0.1398E-10  0.1255E-09  0.1254E-09  0.1401E-10  0.1398E-10  0.2015E-09  0.2014E-09
    -38.961  0.5652E-07  0.5643E-07  0.3876E+00  0.3872E+00  0.3518E+00  0.3513E+00  0.3876E+00  0.3872E+00  0.7642E-08  0.7640E-08  0.5339E-09  0.5329E-09  0.4747E-08  0.4747E-08  0.5339E-09  0.5329E-09  0.7642E-08  0.7640E-08
    -38.776  0.5260E-06  0.5257E-06  0.3700E+01  0.3700E+01  0.3641E+01  0.3640E+01  0.3700E+01  0.3700E+01  0.7309E-07  0.7314E-07  0.5360E-08  0.5356E-08  0.4418E-07  0.4422E-07  0.5360E-08  0.5356E-08  0.7309E-07  0.7314E-07
    -38.590  0.1664E-06  0.1665E-06  0.1211E+01  0.1212E+01  0.1305E+01  0.1307E+01  0.1211E+01  0.1212E+01  0.2393E-07  0.2397E-07  0.1858E-08  0.1859E-08  0.1398E-07  0.1400E-07  0.1858E-08  0.1859E-08  0.2393E-07  0.2397E-07
    -38.404  0.0000E+00  0.0000E+00  0.0000E+00  0.0000E+00  0.0000E+00  0.0000E+00  0.0000E+00  0.0000E+00  0.0000E+00  0.0000E+00  0.0000E+00  0.0000E+00  0.0000E+00  0.0000E+00  0.0000E+00  0.0000E+00  0.0000E+00  0.0000E+00
    -38.219  0.0000E+00  0.0000E+00  0.0000E+00  0.0000E+00  0.0000E+00  0.0000E+00  0.0000E+00  0.0000E+00  0.0000E+00  0.0000E+00  0.0000E+00  0.0000E+00  0.0000E+00  0.0000E+00  0.0000E+00  0.0000E+00  0.0000E+00  0.0000E+00
    -38.033  0.0000E+00  0.0000E+00  0.0000E+00  0.0000E+00  0.0000E+00  0.0000E+00  0.0000E+00  0.0000E+00  0.0000E+00  0.0000E+00  0.0000E+00  0.0000E+00  0.0000E+00  0.0000E+00  0.0000E+00  0.0000E+00  0.0000E+00  0.0000E+00
    -37.847  0.0000E+00  0.0000E+00  0.0000E+00  0.0000E+00  0.0000E+00  0.0000E+00  0.0000E+00  0.0000E+00  0.0000E+00  0.0000E+00  0.0000E+00  0.0000E+00  0.0000E+00  0.0000E+00  0.0000E+00  0.0000E+00  0.0000E+00  0.0000E+00
    -37.662  0.0000E+00  0.0000E+00  0.0000E+00  0.0000E+00  0.0000E+00  0.0000E+00  0.0000E+00  0.0000E+00  0.0000E+00  0.0000E+00  0.0000E+00  0.0000E+00  0.0000E+00  0.0000E+00  0.0000E+00  0.0000E+00  0.0000E+00  0.0000E+00
    -37.476  0.0000E+00  0.0000E+00  0.0000E+00  0.0000E+00  0.0000E+00  0.0000E+00  0.0000E+00  0.0000E+00  0.0000E+00  0.0000E+00  0.0000E+00  0.0000E+00  0.0000E+00  0.0000E+00  0.0000E+00  0.0000E+00  0.0000E+00  0.0000E+00
    -37.290  0.0000E+00  0.0000E+00  0.0000E+00  0.0000E+00  0.0000E+00  0.0000E+00  0.0000E+00  0.0000E+00  0.0000E+00  0.0000E+00  0.0000E+00  0.0000E+00  0.0000E+00  0.0000E+00  0.0000E+00  0.0000E+00  0.0000E+00  0.0000E+00
    -37.105  0.0000E+00  0.0000E+00  0.0000E+00  0.0000E+00  0.0000E+00  0.0000E+00  0.0000E+00  0.0000E+00  0.0000E+00  0.0000E+00  0.0000E+00  0.0000E+00  0.0000E+00  0.0000E+00  0.0000E+00  0.0000E+00  0.0000E+00  0.0000E+00
    -36.919  0.0000E+00  0.0000E+00  0.0000E+00  0.0000E+00  0.0000E+00  0.0000E+00  0.0000E+00  0.0000E+00  0.0000E+00  0.0000E+00  0.0000E+00  0.0000E+00  0.0000E+00  0.0000E+00  0.0000E+00  0.0000E+00  0.0000E+00  0.0000E+00
    -36.733  0.0000E+00  0.0000E+00  0.0000E+00  0.0000E+00  0.0000E+00  0.0000E+00  0.0000E+00  0.0000E+00  0.0000E+00  0.0000E+00  0.0000E+00  0.0000E+00  0.0000E+00  0.0000E+00  0.0000E+00  0.0000E+00  0.0000E+00  0.0000E+00
    -36.548  0.0000E+00  0.0000E+00  0.0000E+00  0.0000E+00  0.0000E+00  0.0000E+00  0.0000E+00  0.0000E+00  0.0000E+00  0.0000E+00  0.0000E+00  0.0000E+00  0.0000E+00  0.0000E+00  0.0000E+00  0.0000E+00  0.0000E+00  0.0000E+00
    -36.362  0.0000E+00  0.0000E+00  0.0000E+00  0.0000E+00  0.0000E+00  0.0000E+00  0.0000E+00  0.0000E+00  0.0000E+00  0.0000E+00  0.0000E+00  0.0000E+00  0.0000E+00  0.0000E+00  0.0000E+00  0.0000E+00  0.0000E+00  0.0000E+00
    -36.176  0.0000E+00  0.0000E+00  0.0000E+00  0.0000E+00  0.0000E+00  0.0000E+00  0.0000E+00  0.0000E+00  0.0000E+00  0.0000E+00  0.0000E+00  0.0000E+00  0.0000E+00  0.0000E+00  0.0000E+00  0.0000E+00  0.0000E+00  0.0000E+00
    -35.991  0.0000E+00  0.0000E+00  0.0000E+00  0.0000E+00  0.0000E+00  0.0000E+00  0.0000E+00  0.0000E+00  0.0000E+00  0.0000E+00  0.0000E+00  0.0000E+00  0.0000E+00  0.0000E+00  0.0000E+00  0.0000E+00  0.0000E+00  0.0000E+00
    -35.805  0.0000E+00  0.0000E+00  0.0000E+00  0.0000E+00  0.0000E+00  0.0000E+00  0.0000E+00  0.0000E+00  0.0000E+00  0.0000E+00  0.0000E+00  0.0000E+00  0.0000E+00  0.0000E+00  0.0000E+00  0.0000E+00  0.0000E+00  0.0000E+00
    -35.619  0.0000E+00  0.0000E+00  0.0000E+00  0.0000E+00  0.0000E+00  0.0000E+00  0.0000E+00  0.0000E+00  0.0000E+00  0.0000E+00  0.0000E+00  0.0000E+00  0.0000E+00  0.0000E+00  0.0000E+00  0.0000E+00  0.0000E+00  0.0000E+00
    -35.434  0.0000E+00  0.0000E+00  0.0000E+00  0.0000E+00  0.0000E+00  0.0000E+00  0.0000E+00  0.0000E+00  0.0000E+00  0.0000E+00  0.0000E+00  0.0000E+00  0.0000E+00  0.0000E+00  0.0000E+00  0.0000E+00  0.0000E+00  0.0000E+00
    -35.248  0.0000E+00  0.0000E+00  0.0000E+00  0.0000E+00  0.0000E+00  0.0000E+00  0.0000E+00  0.0000E+00  0.0000E+00  0.0000E+00  0.0000E+00  0.0000E+00  0.0000E+00  0.0000E+00  0.0000E+00  0.0000E+00  0.0000E+00  0.0000E+00
    -35.062  0.0000E+00  0.0000E+00  0.0000E+00  0.0000E+00  0.0000E+00  0.0000E+00  0.0000E+00  0.0000E+00  0.0000E+00  0.0000E+00  0.0000E+00  0.0000E+00  0.0000E+00  0.0000E+00  0.0000E+00  0.0000E+00  0.0000E+00  0.0000E+00
    -34.877  0.0000E+00  0.0000E+00  0.0000E+00  0.0000E+00  0.0000E+00  0.0000E+00  0.0000E+00  0.0000E+00  0.0000E+00  0.0000E+00  0.0000E+00  0.0000E+00  0.0000E+00  0.0000E+00  0.0000E+00  0.0000E+00  0.0000E+00  0.0000E+00
    -34.691  0.0000E+00  0.0000E+00  0.0000E+00  0.0000E+00  0.0000E+00  0.0000E+00  0.0000E+00  0.0000E+00  0.0000E+00  0.0000E+00  0.0000E+00  0.0000E+00  0.0000E+00  0.0000E+00  0.0000E+00  0.0000E+00  0.0000E+00  0.0000E+00
    -34.505  0.0000E+00  0.0000E+00  0.0000E+00  0.0000E+00  0.0000E+00  0.0000E+00  0.0000E+00  0.0000E+00  0.0000E+00  0.0000E+00  0.0000E+00  0.0000E+00  0.0000E+00  0.0000E+00  0.0000E+00  0.0000E+00  0.0000E+00  0.0000E+00
    -34.320  0.0000E+00  0.0000E+00  0.0000E+00  0.0000E+00  0.0000E+00  0.0000E+00  0.0000E+00  0.0000E+00  0.0000E+00  0.0000E+00  0.0000E+00  0.0000E+00  0.0000E+00  0.0000E+00  0.0000E+00  0.0000E+00  0.0000E+00  0.0000E+00
    -34.134  0.0000E+00  0.0000E+00  0.0000E+00  0.0000E+00  0.0000E+00  0.0000E+00  0.0000E+00  0.0000E+00  0.0000E+00  0.0000E+00  0.0000E+00  0.0000E+00  0.0000E+00  0.0000E+00  0.0000E+00  0.0000E+00  0.0000E+00  0.0000E+00
    -33.948  0.0000E+00  0.0000E+00  0.0000E+00  0.0000E+00  0.0000E+00  0.0000E+00  0.0000E+00  0.0000E+00  0.0000E+00  0.0000E+00  0.0000E+00  0.0000E+00  0.0000E+00  0.0000E+00  0.0000E+00  0.0000E+00  0.0000E+00  0.0000E+00
    -33.763  0.0000E+00  0.0000E+00  0.0000E+00  0.0000E+00  0.0000E+00  0.0000E+00  0.0000E+00  0.0000E+00  0.0000E+00  0.0000E+00  0.0000E+00  0.0000E+00  0.0000E+00  0.0000E+00  0.0000E+00  0.0000E+00  0.0000E+00  0.0000E+00
    -33.577  0.0000E+00  0.0000E+00  0.0000E+00  0.0000E+00  0.0000E+00  0.0000E+00  0.0000E+00  0.0000E+00  0.0000E+00  0.0000E+00  0.0000E+00  0.0000E+00  0.0000E+00  0.0000E+00  0.0000E+00  0.0000E+00  0.0000E+00  0.0000E+00
    -33.391  0.0000E+00  0.0000E+00  0.0000E+00  0.0000E+00  0.0000E+00  0.0000E+00  0.0000E+00  0.0000E+00  0.0000E+00  0.0000E+00  0.0000E+00  0.0000E+00  0.0000E+00  0.0000E+00  0.0000E+00  0.0000E+00  0.0000E+00  0.0000E+00
    -33.206  0.0000E+00  0.0000E+00  0.0000E+00  0.0000E+00  0.0000E+00  0.0000E+00  0.0000E+00  0.0000E+00  0.0000E+00  0.0000E+00  0.0000E+00  0.0000E+00  0.0000E+00  0.0000E+00  0.0000E+00  0.0000E+00  0.0000E+00  0.0000E+00
    -33.020  0.0000E+00  0.0000E+00  0.0000E+00  0.0000E+00  0.0000E+00  0.0000E+00  0.0000E+00  0.0000E+00  0.0000E+00  0.0000E+00  0.0000E+00  0.0000E+00  0.0000E+00  0.0000E+00  0.0000E+00  0.0000E+00  0.0000E+00  0.0000E+00
    -32.834  0.0000E+00  0.0000E+00  0.0000E+00  0.0000E+00  0.0000E+00  0.0000E+00  0.0000E+00  0.0000E+00  0.0000E+00  0.0000E+00  0.0000E+00  0.0000E+00  0.0000E+00  0.0000E+00  0.0000E+00  0.0000E+00  0.0000E+00  0.0000E+00
    -32.649  0.0000E+00  0.0000E+00  0.0000E+00  0.0000E+00  0.0000E+00  0.0000E+00  0.0000E+00  0.0000E+00  0.0000E+00  0.0000E+00  0.0000E+00  0.0000E+00  0.0000E+00  0.0000E+00  0.0000E+00  0.0000E+00  0.0000E+00  0.0000E+00
    -32.463  0.0000E+00  0.0000E+00  0.0000E+00  0.0000E+00  0.0000E+00  0.0000E+00  0.0000E+00  0.0000E+00  0.0000E+00  0.0000E+00  0.0000E+00  0.0000E+00  0.0000E+00  0.0000E+00  0.0000E+00  0.0000E+00  0.0000E+00  0.0000E+00
    -32.277  0.0000E+00  0.0000E+00  0.0000E+00  0.0000E+00  0.0000E+00  0.0000E+00  0.0000E+00  0.0000E+00  0.0000E+00  0.0000E+00  0.0000E+00  0.0000E+00  0.0000E+00  0.0000E+00  0.0000E+00  0.0000E+00  0.0000E+00  0.0000E+00
    -32.092  0.0000E+00  0.0000E+00  0.0000E+00  0.0000E+00  0.0000E+00  0.0000E+00  0.0000E+00  0.0000E+00  0.0000E+00  0.0000E+00  0.0000E+00  0.0000E+00  0.0000E+00  0.0000E+00  0.0000E+00  0.0000E+00  0.0000E+00  0.0000E+00