   9   9   1   0
  0.3222710E+02  0.4010178E-09  0.4010178E-09  0.2082600E-08  0.5000000E-15
  1.000000000000000E-004
  CAR 
 unknown system                          
     10.05750342    -46.09636093  301     -1.17180711      1.00000000
    -46.096  0.0000E+00  0.0000E+00  0.0000E+00  0.0000E+00
    -45.909  0.0000E+00  0.0000E+00  0.0000E+00  0.0000E+00
    -45.722  0.0000E+00  0.0000E+00  0.0000E+00  0.0000E+00
    -45.535  0.0000E+00  0.0000E+00  0.0000E+00  0.0000E+00
    -45.348  0.0000E+00  0.0000E+00  0.0000E+00  0.0000E+00
    -45.160  0.0000E+00  0.0000E+00  0.0000E+00  0.0000E+00
    -44.973  0.0000E+00  0.0000E+00  0.0000E+00  0.0000E+00
    -44.786  0.0000E+00  0.0000E+00  0.0000E+00  0.0000E+00
    -44.599  0.0000E+00  0.0000E+00  0.0000E+00  0.0000E+00
    -44.412  0.0000E+00  0.0000E+00  0.0000E+00  0.0000E+00
    -44.225  0.0000E+00  0.0000E+00  0.0000E+00  0.0000E+00
    -44.037  0.2131E-02  0.2128E-02  0.3989E-03  0.3984E-03
    -43.850  0.8775E-01  0.8763E-01  0.1682E-01  0.1680E-01
    -43.663  0.3433E+01  0.3429E+01  0.6594E+00  0.6586E+00
    -43.476  0.3341E+02  0.3341E+02  0.6914E+01  0.6912E+01
    -43.289  0.1080E+02  0.1081E+02  0.8936E+01  0.8936E+01
    -43.101  0.0000E+00  0.0000E+00  0.9000E+01  0.9000E+01
    -42.914  0.0000E+00  0.0000E+00  0.9000E+01  0.9000E+01
    -42.727  0.0000E+00  0.0000E+00  0.9000E+01  0.9000E+01
    -42.540  0.0000E+00  0.0000E+00  0.9000E+01  0.9000E+01
    -42.353  0.0000E+00  0.0000E+00  0.9000E+01  0.9000E+01
    -42.166  0.0000E+00  0.0000E+00  0.9000E+01  0.9000E+01
    -41.978  0.0000E+00  0.0000E+00  0.9000E+01  0.9000E+01
    -41.791  0.0000E+00  0.0000E+00  0.9000E+01  0.9000E+01
    -41.604  0.0000E+00  0.0000E+00  0.9000E+01  0.9000E+01
    -41.417  0.0000E+00  0.0000E+00  0.9000E+01  0.9000E+01
    -41.230  0.0000E+00  0.0000E+00  0.9000E+01  0.9000E+01
    -41.043  0.0000E+00  0.0000E+00  0.9000E+01  0.9000E+01
    -40.855  0.0000E+00  0.0000E+00  0.9000E+01  0.9000E+01
    -40.668  0.0000E+00  0.0000E+00  0.9000E+01  0.9000E+01
    -40.481  0.0000E+00  0.0000E+00  0.9000E+01  0.9000E+01
    -40.294  0.0000E+00  0.0000E+00  0.9000E+01  0.9000E+01
    -40.107  0.0000E+00  0.0000E+00  0.9000E+01  0.9000E+01
    -39.919  0.0000E+00  0.0000E+00  0.9000E+01  0.9000E+01
    -39.732  0.0000E+00  0.0000E+00  0.9000E+01  0.9000E+01
    -39.545  0.0000E+00  0.0000E+00  0.9000E+01  0.9000E+01
    -39.358  0.0000E+00  0.0000E+00  0.9000E+01  0.9000E+01
    -39.171  0.0000E+00  0.0000E+00  0.9000E+01  0.9000E+01
    -38.984  0.0000E+00  0.0000E+00  0.9000E+01  0.9000E+01
    -38.796  0.0000E+00  0.0000E+00  0.9000E+01  0.9000E+01
    -38.609  0.0000E+00  0.0000E+00  0.9000E+01  0.9000E+01
    -38.422  0.0000E+00  0.0000E+00  0.9000E+01  0.9000E+01
    -38.235  0.0000E+00  0.0000E+00  0.9000E+01  0.9000E+01
    -38.048  0.0000E+00  0.0000E+00  0.9000E+01  0.9000E+01
    -37.860  0.0000E+00  0.0000E+00  0.9000E+01  0.9000E+01
    -37.673  0.0000E+00  0.0000E+00  0.9000E+01  0.9000E+01
    -37.486  0.0000E+00  0.0000E+00  0.9000E+01  0.9000E+01
    -37.299  0.0000E+00  0.0000E+00  0.9000E+01  0.9000E+01
    -37.112  0.0000E+00  0.0000E+00  0.9000E+01  0.9000E+01
    -36.925  0.0000E+00  0.0000E+00  0.9000E+01  0.9000E+01
    -36.737  0.0000E+00  0.0000E+00  0.9000E+01  0.9000E+01
    -36.550  0.0000E+00  0.0000E+00  0.9000E+01  0.9000E+01
    -36.363  0.0000E+00  0.0000E+00  0.9000E+01  0.9000E+01
    -36.176  0.0000E+00  0.0000E+00  0.9000E+01  0.9000E+01
    -35.989  0.0000E+00  0.0000E+00  0.9000E+01  0.9000E+01
    -35.801  0.0000E+00  0.0000E+00  0.9000E+01  0.9000E+01
    -35.614  0.0000E+00  0.0000E+00  0.9000E+01  0.9000E+01
    -35.427  0.0000E+00  0.0000E+00  0.9000E+01  0.9000E+01
    -35.240  0.0000E+00  0.0000E+00  0.9000E+01  0.9000E+01
    -35.053  0.0000E+00  0.0000E+00  0.9000E+01  0.9000E+01
    -34.866  0.0000E+00  0.0000E+00  0.9000E+01  0.9000E+01
    -34.678  0.0000E+00  0.0000E+00  0.9000E+01  0.9000E+01
    -34.491  0.0000E+00  0.0000E+00  0.9000E+01  0.9000E+01
    -34.304  0.0000E+00  0.0000E+00  0.9000E+01  0.9000E+01
    -34.117  0.0000E+00  0.0000E+00  0.9000E+01  0.9000E+01
    -33.930  0.0000E+00  0.0000E+00  0.9000E+01  0.9000E+01
    -33.743  0.0000E+00  0.0000E+00  0.9000E+01  0.9000E+01
    -33.555  0.0000E+00  0.0000E+00  0.9000E+01  0.9000E+01
    -33.368  0.0000E+00  0.0000E+00  0.9000E+01  0.9000E+01
    -33.181  0.0000E+00  0.0000E+00  0.9000E+01  0.9000E+01
    -32.994  0.0000E+00  0.0000E+00  0.9000E+01  0.9000E+01
    -32.807  0.0000E+00  0.0000E+00  0.9000E+01  0.9000E+01
    -32.619  0.0000E+00  0.0000E+00  0.9000E+01  0.9000E+01
    -32.432  0.0000E+00  0.0000E+00  0.9000E+01  0.9000E+01
    -32.245  0.0000E+00  0.0000E+00  0.9000E+01  0.9000E+01
    -32.058  0.0000E+00  0.0000E+00  0.9000E+01  0.9000E+01
    -31.871  0.0000E+00  0.0000E+00  0.9000E+01  0.9000E+01
    -31.684  0.0000E+00  0.0000E+00  0.9000E+01  0.9000E+01
    -31.496  0.0000E+00  0.0000E+00  0.9000E+01  0.9000E+01
    -31.309  0.0000E+00  0.0000E+00  0.9000E+01  0.9000E+01
    -31.122  0.0000E+00  0.0000E+00  0.9000E+01  0.9000E+01
    -30.935  0.0000E+00  0.0000E+00  0.9000E+01  0.9000E+01
    -30.748  0.0000E+00  0.0000E+00  0.9000E+01  0.9000E+01
    -30.560  0.0000E+00  0.0000E+00  0.9000E+01  0.9000E+01
    -30.373  0.0000E+00  0.0000E+00  0.9000E+01  0.9000E+01
    -30.186  0.0000E+00  0.0000E+00  0.9000E+01  0.9000E+01
    -29.999  0.0000E+00  0.0000E+00  0.9000E+01  0.9000E+01
    -29.812  0.0000E+00  0.0000E+00  0.9000E+01  0.9000E+01
    -29.625  0.0000E+00  0.0000E+00  0.9000E+01  0.9000E+01
    -29.437  0.0000E+00  0.0000E+00  0.9000E+01  0.9000E+01
    -29.250  0.0000E+00  0.0000E+00  0.9000E+01  0.9000E+01
    -29.063  0.0000E+00  0.0000E+00  0.9000E+01  0.9000E+01
    -28.876  0.0000E+00  0.0000E+00  0.9000E+01  0.9000E+01
    -28.689  0.0000E+00  0.0000E+00  0.9000E+01  0.9000E+01
    -28.501  0.0000E+00  0.0000E+00  0.9000E+01  0.9000E+01
    -28.314  0.0000E+00  0.0000E+00  0.9000E+01  0.9000E+01
    -28.127  0.0000E+00  0.0000E+00  0.9000E+01  0.9000E+01
    -27.940  0.0000E+00  0.0000E+00  0.9000E+01  0.9000E+01
    -27.753  0.0000E+00  0.0000E+00  0.9000E+01  0.9000E+01
    -27.566  0.0000E+00  0.0000E+00  0.9000E+01  0.9000E+01
    -27.378  0.0000E+00  0.0000E+00  0.9000E+01  0.9000E+01
    -27.191  0.0000E+00  0.0000E+00  0.9000E+01  0.9000E+01
    -27.004  0.0000E+00  0.0000E+00  0.9000E+01  0.9000E+01
    -26.817  0.0000E+00  0.0000E+00  0.9000E+01  0.9000E+01
    -26.630  0.0000E+00  0.0000E+00  0.9000E+01  0.9000E+01
    -26.443  0.0000E+00  0.0000E+00  0.9000E+01  0.9000E+01
    -26.255  0.0000E+00  0.0000E+00  0.9000E+01  0.9000E+01
    -26.068  0.0000E+00  0.0000E+00  0.9000E+01  0.9000E+01
    -25.881  0.0000E+00  0.0000E+00  0.9000E+01  0.9000E+01
    -25.694  0.0000E+00  0.0000E+00  0.9000E+01  0.9000E+01
    -25.507  0.0000E+00  0.0000E+00  0.9000E+01  0.9000E+01
    -25.319  0.0000E+00  0.0000E+00  0.9000E+01  0.9000E+01
    -25.132  0.0000E+00  0.0000E+00  0.9000E+01  0.9000E+01
    -24.945  0.0000E+00  0.0000E+00  0.9000E+01  0.9000E+01
    -24.758  0.0000E+00  0.0000E+00  0.9000E+01  0.9000E+01
    -24.571  0.0000E+00  0.0000E+00  0.9000E+01  0.9000E+01
    -24.384  0.0000E+00  0.0000E+00  0.9000E+01  0.9000E+01
    -24.196  0.0000E+00  0.0000E+00  0.9000E+01  0.9000E+01
    -24.009  0.0000E+00  0.0000E+00  0.9000E+01  0.9000E+01
    -23.822  0.0000E+00  0.0000E+00  0.9000E+01  0.9000E+01
    -23.635  0.0000E+00  0.0000E+00  0.9000E+01  0.9000E+01
    -23.448  0.0000E+00  0.0000E+00  0.9000E+01  0.9000E+01
    -23.260  0.0000E+00  0.0000E+00  0.9000E+01  0.9000E+01
    -23.073  0.0000E+00  0.0000E+00  0.9000E+01  0.9000E+01
    -22.886  0.0000E+00  0.0000E+00  0.9000E+01  0.9000E+01
    -22.699  0.0000E+00  0.0000E+00  0.9000E+01  0.9000E+01
    -22.512  0.0000E+00  0.0000E+00  0.9000E+01  0.9000E+01
    -22.325  0.0000E+00  0.0000E+00  0.9000E+01  0.9000E+01
    -22.137  0.0000E+00  0.0000E+00  0.9000E+01  0.9000E+01
    -21.950  0.0000E+00  0.0000E+00  0.9000E+01  0.9000E+01
    -21.763  0.0000E+00  0.0000E+00  0.9000E+01  0.9000E+01
    -21.576  0.0000E+00  0.0000E+00  0.9000E+01  0.9000E+01
    -21.389  0.0000E+00  0.0000E+00  0.9000E+01  0.9000E+01
    -21.201  0.0000E+00  0.0000E+00  0.9000E+01  0.9000E+01
    -21.014  0.0000E+00  0.0000E+00  0.9000E+01  0.9000E+01
    -20.827  0.0000E+00  0.0000E+00  0.9000E+01  0.9000E+01
    -20.640  0.0000E+00  0.0000E+00  0.9000E+01  0.9000E+01
    -20.453  0.0000E+00  0.0000E+00  0.9000E+01  0.9000E+01
    -20.266  0.0000E+00  0.0000E+00  0.9000E+01  0.9000E+01
    -20.078  0.0000E+00  0.0000E+00  0.9000E+01  0.9000E+01
    -19.891  0.0000E+00  0.0000E+00  0.9000E+01  0.9000E+01
    -19.704  0.0000E+00  0.0000E+00  0.9000E+01  0.9000E+01
    -19.517  0.0000E+00  0.0000E+00  0.9000E+01  0.9000E+01
    -19.330  0.0000E+00  0.0000E+00  0.9000E+01  0.9000E+01
    -19.143  0.0000E+00  0.0000E+00  0.9000E+01  0.9000E+01
    -18.955  0.0000E+00  0.0000E+00  0.9000E+01  0.9000E+01
    -18.768  0.0000E+00  0.0000E+00  0.9000E+01  0.9000E+01
    -18.581  0.0000E+00  0.0000E+00  0.9000E+01  0.9000E+01
    -18.394  0.0000E+00  0.0000E+00  0.9000E+01  0.9000E+01
    -18.207  0.0000E+00  0.0000E+00  0.9000E+01  0.9000E+01
    -18.019  0.0000E+00  0.0000E+00  0.9000E+01  0.9000E+01
    -17.832  0.0000E+00  0.0000E+00  0.9000E+01  0.9000E+01
    -17.645  0.0000E+00  0.0000E+00  0.9000E+01  0.9000E+01
    -17.458  0.0000E+00  0.0000E+00  0.9000E+01  0.9000E+01
    -17.271  0.0000E+00  0.0000E+00  0.9000E+01  0.9000E+01
    -17.084  0.0000E+00  0.0000E+00  0.9000E+01  0.9000E+01
    -16.896  0.0000E+00  0.0000E+00  0.9000E+01  0.9000E+01
    -16.709  0.0000E+00  0.0000E+00  0.9000E+01  0.9000E+01
    -16.522  0.0000E+00  0.0000E+00  0.9000E+01  0.9000E+01
    -16.335  0.0000E+00  0.0000E+00  0.9000E+01  0.9000E+01
    -16.148  0.0000E+00  0.0000E+00  0.9000E+01  0.9000E+01
    -15.960  0.0000E+00  0.0000E+00  0.9000E+01  0.9000E+01
    -15.773  0.0000E+00  0.0000E+00  0.9000E+01  0.9000E+01
    -15.586  0.9284E-04  0.9459E-04  0.9000E+01  0.9000E+01
    -15.399  0.4579E-02  0.4666E-02  0.9001E+01  0.9001E+01
    -15.212  0.1806E+00  0.1838E+00  0.9035E+01  0.9035E+01
    -15.025  0.2596E+01  0.2618E+01  0.9521E+01  0.9525E+01
    -14.837  0.8438E+01  0.8488E+01  0.1110E+02  0.1111E+02
    -14.650  0.1687E+02  0.1686E+02  0.1426E+02  0.1427E+02
    -14.463  0.3815E+01  0.3753E+01  0.1498E+02  0.1498E+02
    -14.276  0.0000E+00  0.0000E+00  0.1500E+02  0.1500E+02
    -14.089  0.0000E+00  0.0000E+00  0.1500E+02  0.1500E+02
    -13.901  0.0000E+00  0.0000E+00  0.1500E+02  0.1500E+02
    -13.714  0.0000E+00  0.0000E+00  0.1500E+02  0.1500E+02
    -13.527  0.0000E+00  0.0000E+00  0.1500E+02  0.1500E+02
    -13.340  0.0000E+00  0.0000E+00  0.1500E+02  0.1500E+02
    -13.153  0.0000E+00  0.0000E+00  0.1500E+02  0.1500E+02
    -12.966  0.0000E+00  0.0000E+00  0.1500E+02  0.1500E+02
    -12.778  0.0000E+00  0.0000E+00  0.1500E+02  0.1500E+02
    -12.591  0.0000E+00  0.0000E+00  0.1500E+02  0.1500E+02
    -12.404  0.0000E+00  0.0000E+00  0.1500E+02  0.1500E+02
    -12.217  0.0000E+00  0.0000E+00  0.1500E+02  0.1500E+02
    -12.030  0.0000E+00  0.0000E+00  0.1500E+02  0.1500E+02
    -11.843  0.0000E+00  0.0000E+00  0.1500E+02  0.1500E+02
    -11.655  0.0000E+00  0.0000E+00  0.1500E+02  0.1500E+02
    -11.468  0.0000E+00  0.0000E+00  0.1500E+02  0.1500E+02
    -11.281  0.0000E+00  0.0000E+00  0.1500E+02  0.1500E+02
    -11.094  0.0000E+00  0.0000E+00  0.1500E+02  0.1500E+02
    -10.907  0.0000E+00  0.0000E+00  0.1500E+02  0.1500E+02
    -10.719  0.0000E+00  0.0000E+00  0.1500E+02  0.1500E+02
    -10.532  0.0000E+00  0.0000E+00  0.1500E+02  0.1500E+02
    -10.345  0.0000E+00  0.0000E+00  0.1500E+02  0.1500E+02
    -10.158  0.0000E+00  0.0000E+00  0.1500E+02  0.1500E+02
     -9.971  0.0000E+00  0.0000E+00  0.1500E+02  0.1500E+02
     -9.784  0.0000E+00  0.0000E+00  0.1500E+02  0.1500E+02
     -9.596  0.0000E+00  0.0000E+00  0.1500E+02  0.1500E+02
     -9.409  0.0000E+00  0.0000E+00  0.1500E+02  0.1500E+02
     -9.222  0.0000E+00  0.0000E+00  0.1500E+02  0.1500E+02
     -9.035  0.0000E+00  0.0000E+00  0.1500E+02  0.1500E+02
     -8.848  0.0000E+00  0.0000E+00  0.1500E+02  0.1500E+02
     -8.660  0.0000E+00  0.0000E+00  0.1500E+02  0.1500E+02
     -8.473  0.0000E+00  0.0000E+00  0.1500E+02  0.1500E+02
     -8.286  0.0000E+00  0.0000E+00  0.1500E+02  0.1500E+02
     -8.099  0.0000E+00  0.0000E+00  0.1500E+02  0.1500E+02
     -7.912  0.0000E+00  0.0000E+00  0.1500E+02  0.1500E+02
     -7.725  0.0000E+00  0.0000E+00  0.1500E+02  0.1500E+02
     -7.537  0.0000E+00  0.0000E+00  0.1500E+02  0.1500E+02
     -7.350  0.0000E+00  0.0000E+00  0.1500E+02  0.1500E+02
     -7.163  0.0000E+00  0.0000E+00  0.1500E+02  0.1500E+02
     -6.976  0.0000E+00  0.0000E+00  0.1500E+02  0.1500E+02
     -6.789  0.0000E+00  0.0000E+00  0.1500E+02  0.1500E+02
     -6.601  0.0000E+00  0.0000E+00  0.1500E+02  0.1500E+02
     -6.414  0.0000E+00  0.0000E+00  0.1500E+02  0.1500E+02
     -6.227  0.0000E+00  0.0000E+00  0.1500E+02  0.1500E+02
     -6.040  0.0000E+00  0.0000E+00  0.1500E+02  0.1500E+02
     -5.853  0.0000E+00  0.0000E+00  0.1500E+02  0.1500E+02
     -5.666  0.0000E+00  0.0000E+00  0.1500E+02  0.1500E+02
     -5.478  0.0000E+00  0.0000E+00  0.1500E+02  0.1500E+02
     -5.291  0.0000E+00  0.0000E+00  0.1500E+02  0.1500E+02
     -5.104  0.5334E-04  0.5314E-04  0.1500E+02  0.1500E+02
     -4.917  0.2814E-02  0.2804E-02  0.1500E+02  0.1500E+02
     -4.730  0.1149E+00  0.1145E+00  0.1502E+02  0.1502E+02
     -4.543  0.2235E+01  0.2230E+01  0.1544E+02  0.1544E+02
     -4.355  0.6389E+01  0.6384E+01  0.1664E+02  0.1663E+02
     -4.168  0.6659E+01  0.6663E+01  0.1788E+02  0.1788E+02
     -3.981  0.5159E+01  0.5167E+01  0.1886E+02  0.1886E+02
     -3.794  0.5936E+01  0.5937E+01  0.1997E+02  0.1998E+02
     -3.607  0.3302E+01  0.3301E+01  0.2060E+02  0.2060E+02
     -3.419  0.4286E+01  0.4295E+01  0.2140E+02  0.2140E+02
     -3.232  0.6711E+01  0.6715E+01  0.2266E+02  0.2266E+02
     -3.045  0.9985E+01  0.9997E+01  0.2453E+02  0.2453E+02
     -2.858  0.9249E+01  0.9254E+01  0.2627E+02  0.2627E+02
     -2.671  0.1468E+02  0.1470E+02  0.2902E+02  0.2903E+02
     -2.484  0.1531E+02  0.1531E+02  0.3189E+02  0.3190E+02
     -2.296  0.5456E+01  0.5419E+01  0.3292E+02  0.3292E+02
     -2.109  0.3507E+00  0.3464E+00  0.3300E+02  0.3300E+02
     -1.922  0.0000E+00  0.0000E+00  0.3300E+02  0.3300E+02
     -1.735  0.0000E+00  0.0000E+00  0.3300E+02  0.3300E+02
     -1.548  0.0000E+00  0.0000E+00  0.3300E+02  0.3300E+02
     -1.360  0.0000E+00  0.0000E+00  0.3300E+02  0.3300E+02
     -1.173  0.0000E+00  0.0000E+00  0.3300E+02  0.3300E+02
     -0.986  0.0000E+00  0.0000E+00  0.3300E+02  0.3300E+02
     -0.799  0.0000E+00  0.0000E+00  0.3300E+02  0.3300E+02
     -0.612  0.0000E+00  0.0000E+00  0.3300E+02  0.3300E+02
     -0.425  0.0000E+00  0.0000E+00  0.3300E+02  0.3300E+02
     -0.237  0.0000E+00  0.0000E+00  0.3300E+02  0.3300E+02
     -0.050  0.0000E+00  0.0000E+00  0.3300E+02  0.3300E+02
      0.137  0.0000E+00  0.0000E+00  0.3300E+02  0.3300E+02
      0.324  0.0000E+00  0.0000E+00  0.3300E+02  0.3300E+02
      0.511  0.0000E+00  0.0000E+00  0.3300E+02  0.3300E+02
      0.699  0.0000E+00  0.0000E+00  0.3300E+02  0.3300E+02
      0.886  0.0000E+00  0.0000E+00  0.3300E+02  0.3300E+02
      1.073  0.0000E+00  0.0000E+00  0.3300E+02  0.3300E+02
      1.260  0.0000E+00  0.0000E+00  0.3300E+02  0.3300E+02
      1.447  0.2393E-05  0.2370E-05  0.3300E+02  0.3300E+02
      1.634  0.9863E-04  0.9765E-04  0.3300E+02  0.3300E+02
      1.822  0.4015E-02  0.3977E-02  0.3300E+02  0.3300E+02
      2.009  0.6412E-01  0.6390E-01  0.3301E+02  0.3301E+02
      2.196  0.5028E-01  0.5038E-01  0.3302E+02  0.3302E+02
      2.383  0.2165E+00  0.2151E+00  0.3306E+02  0.3306E+02
      2.570  0.5835E+00  0.5838E+00  0.3317E+02  0.3317E+02
      2.758  0.6857E+00  0.6820E+00  0.3330E+02  0.3330E+02
      2.945  0.6660E+00  0.6701E+00  0.3343E+02  0.3343E+02
      3.132  0.4966E+00  0.4918E+00  0.3352E+02  0.3352E+02
      3.319  0.2622E+01  0.2606E+01  0.3401E+02  0.3401E+02
      3.506  0.3444E+01  0.3440E+01  0.3465E+02  0.3465E+02
      3.693  0.4557E+01  0.4563E+01  0.3551E+02  0.3551E+02
      3.881  0.2103E+01  0.2113E+01  0.3591E+02  0.3590E+02
      4.068  0.5015E+00  0.5101E+00  0.3600E+02  0.3600E+02
      4.255  0.1885E+00  0.1880E+00  0.3604E+02  0.3604E+02
      4.442  0.1275E+00  0.1278E+00  0.3607E+02  0.3607E+02
      4.629  0.6533E+00  0.6474E+00  0.3619E+02  0.3619E+02
      4.816  0.1700E+01  0.1695E+01  0.3651E+02  0.3650E+02
      5.004  0.1528E+01  0.1522E+01  0.3679E+02  0.3679E+02
      5.191  0.2505E+01  0.2490E+01  0.3726E+02  0.3726E+02
      5.378  0.3520E+01  0.3507E+01  0.3792E+02  0.3791E+02
      5.565  0.2472E+01  0.2440E+01  0.3839E+02  0.3837E+02
      5.752  0.1810E+01  0.1872E+01  0.3873E+02  0.3873E+02
      5.940  0.1487E+01  0.1439E+01  0.3901E+02  0.3900E+02
      6.127  0.3845E+01  0.3574E+01  0.3973E+02  0.3967E+02
      6.314  0.4605E+01  0.4695E+01  0.4059E+02  0.4055E+02
      6.501  0.4796E+01  0.4935E+01  0.4149E+02  0.4147E+02
      6.688  0.2795E+01  0.2969E+01  0.4202E+02  0.4203E+02
      6.875  0.2990E+01  0.2953E+01  0.4258E+02  0.4259E+02
      7.063  0.2588E+01  0.2586E+01  0.4307E+02  0.4307E+02
      7.250  0.2508E+01  0.2430E+01  0.4354E+02  0.4353E+02
      7.437  0.1771E+01  0.1595E+01  0.4387E+02  0.4383E+02
      7.624  0.6396E+00  0.8307E+00  0.4399E+02  0.4399E+02
      7.811  0.3192E-01  0.6919E-01  0.4400E+02  0.4400E+02
      7.999  0.0000E+00  0.0000E+00  0.4400E+02  0.4400E+02
      8.186  0.0000E+00  0.0000E+00  0.4400E+02  0.4400E+02
      8.373  0.0000E+00  0.0000E+00  0.4400E+02  0.4400E+02
      8.560  0.0000E+00  0.0000E+00  0.4400E+02  0.4400E+02
      8.747  0.0000E+00  0.0000E+00  0.4400E+02  0.4400E+02
      8.934  0.0000E+00  0.0000E+00  0.4400E+02  0.4400E+02
      9.122  0.0000E+00  0.0000E+00  0.4400E+02  0.4400E+02
      9.309  0.0000E+00  0.0000E+00  0.4400E+02  0.4400E+02
      9.496  0.0000E+00  0.0000E+00  0.4400E+02  0.4400E+02
      9.683  0.0000E+00  0.0000E+00  0.4400E+02  0.4400E+02
      9.870  0.0000E+00  0.0000E+00  0.4400E+02  0.4400E+02
     10.058  0.0000E+00  0.0000E+00  0.4400E+02  0.4400E+02
     10.05750342    -46.09636093  301     -1.17180711      1.00000000
    -46.096  0.0000E+00  0.0000E+00  0.0000E+00  0.0000E+00  0.0000E+00  0.0000E+00  0.0000E+00  0.0000E+00  0.0000E+00  0.0000E+00  0.0000E+00  0.0000E+00  0.0000E+00  0.0000E+00  0.0000E+00  0.0000E+00  0.0000E+00  0.0000E+00
    -45.909  0.0000E+00  0.0000E+00  0.0000E+00  0.0000E+00  0.0000E+00  0.0000E+00  0.0000E+00  0.0000E+00  0.0000E+00  0.0000E+00  0.0000E+00  0.0000E+00  0.0000E+00  0.0000E+00  0.0000E+00  0.0000E+00  0.0000E+00  0.0000E+00
    -45.722  0.0000E+00  0.0000E+00  0.0000E+00  0.0000E+00  0.0000E+00  0.0000E+00  0.0000E+00  0.0000E+00  0.0000E+00  0.0000E+00  0.0000E+00  0.0000E+00  0.0000E+00  0.0000E+00  0.0000E+00  0.0000E+00  0.0000E+00  0.0000E+00
    -45.535  0.0000E+00  0.0000E+00  0.0000E+00  0.0000E+00  0.0000E+00  0.0000E+00  0.0000E+00  0.0000E+00  0.0000E+00  0.0000E+00  0.0000E+00  0.0000E+00  0.0000E+00  0.0000E+00  0.0000E+00  0.0000E+00  0.0000E+00  0.0000E+00
    -45.348  0.0000E+00  0.0000E+00  0.0000E+00  0.0000E+00  0.0000E+00  0.0000E+00  0.0000E+00  0.0000E+00  0.0000E+00  0.0000E+00  0.0000E+00  0.0000E+00  0.0000E+00  0.0000E+00  0.0000E+00  0.0000E+00  0.0000E+00  0.0000E+00
    -45.160  0.0000E+00  0.0000E+00  0.0000E+00  0.0000E+00  0.0000E+00  0.0000E+00  0.0000E+00  0.0000E+00  0.0000E+00  0.0000E+00  0.0000E+00  0.0000E+00  0.0000E+00  0.0000E+00  0.0000E+00  0.0000E+00  0.0000E+00  0.0000E+00
    -44.973  0.0000E+00  0.0000E+00  0.0000E+00  0.0000E+00  0.0000E+00  0.0000E+00  0.0000E+00  0.0000E+00  0.0000E+00  0.0000E+00  0.0000E+00  0.0000E+00  0.0000E+00  0.0000E+00  0.0000E+00  0.0000E+00  0.0000E+00  0.0000E+00
    -44.786  0.0000E+00  0.0000E+00  0.0000E+00  0.0000E+00  0.0000E+00  0.0000E+00  0.0000E+00  0.0000E+00  0.0000E+00  0.0000E+00  0.0000E+00  0.0000E+00  0.0000E+00  0.0000E+00  0.0000E+00  0.0000E+00  0.0000E+00  0.0000E+00
    -44.599  0.0000E+00  0.0000E+00  0.0000E+00  0.0000E+00  0.0000E+00  0.0000E+00  0.0000E+00  0.0000E+00  0.0000E+00  0.0000E+00  0.0000E+00  0.0000E+00  0.0000E+00  0.0000E+00  0.0000E+00  0.0000E+00  0.0000E+00  0.0000E+00
    -44.412  0.0000E+00  0.0000E+00  0.0000E+00  0.0000E+00  0.0000E+00  0.0000E+00  0.0000E+00  0.0000E+00  0.0000E+00  0.0000E+00  0.0000E+00  0.0000E+00  0.0000E+00  0.0000E+00  0.0000E+00  0.0000E+00  0.0000E+00  0.0000E+00
    -44.225  0.0000E+00  0.0000E+00  0.0000E+00  0.0000E+00  0.0000E+00  0.0000E+00  0.0000E+00  0.0000E+00  0.0000E+00  0.0000E+00  0.0000E+00  0.0000E+00  0.0000E+00  0.0000E+00  0.0000E+00  0.0000E+00  0.0000E+00  0.0000E+00
    -44.037  0.2209E-12  0.2216E-12  0.2174E-03  0.2171E-03  0.2715E-03  0.2711E-03  0.2174E-03  0.2171E-03  0.1625E-13  0.1650E-13  0.4127E-14  0.4148E-14  0.1642E-13  0.1660E-13  0.4127E-14  0.4148E-14  0.1625E-13  0.1650E-13
    -43.850  0.9097E-11  0.9125E-11  0.8953E-02  0.8941E-02  0.1117E-01  0.1116E-01  0.8953E-02  0.8941E-02  0.6692E-12  0.6796E-12  0.1699E-12  0.1707E-12  0.6761E-12  0.6837E-12  0.1699E-12  0.1707E-12  0.6692E-12  0.6796E-12
    -43.663  0.3581E-09  0.3592E-09  0.3525E+00  0.3521E+00  0.4327E+00  0.4321E+00  0.3525E+00  0.3521E+00  0.2634E-10  0.2675E-10  0.6608E-11  0.6641E-11  0.2649E-10  0.2679E-10  0.6608E-11  0.6641E-11  0.2634E-10  0.2675E-10
    -43.476  0.3699E-08  0.3714E-08  0.3650E+01  0.3649E+01  0.3773E+01  0.3773E+01  0.3650E+01  0.3649E+01  0.2718E-09  0.2764E-09  0.6059E-10  0.6092E-10  0.2614E-09  0.2647E-09  0.6059E-10  0.6092E-10  0.2718E-09  0.2764E-09
    -43.289  0.1272E-08  0.1279E-08  0.1259E+01  0.1260E+01  0.1062E+01  0.1063E+01  0.1259E+01  0.1260E+01  0.9344E-10  0.9515E-10  0.1824E-10  0.1834E-10  0.8574E-10  0.8700E-10  0.1824E-10  0.1834E-10  0.9344E-10  0.9515E-10
    -43.101  0.0000E+00  0.0000E+00  0.0000E+00  0.0000E+00  0.0000E+00  0.0000E+00  0.0000E+00  0.0000E+00  0.0000E+00  0.0000E+00  0.0000E+00  0.0000E+00  0.0000E+00  0.0000E+00  0.0000E+00  0.0000E+00  0.0000E+00  0.0000E+00
    -42.914  0.0000E+00  0.0000E+00  0.0000E+00  0.0000E+00  0.0000E+00  0.0000E+00  0.0000E+00  0.0000E+00  0.0000E+00  0.0000E+00  0.0000E+00  0.0000E+00  0.0000E+00  0.0000E+00  0.0000E+00  0.0000E+00  0.0000E+00  0.0000E+00
    -42.727  0.0000E+00  0.0000E+00  0.0000E+00  0.0000E+00  0.0000E+00  0.0000E+00  0.0000E+00  0.0000E+00  0.0000E+00  0.0000E+00  0.0000E+00  0.0000E+00  0.0000E+00  0.0000E+00  0.0000E+00  0.0000E+00  0.0000E+00  0.0000E+00
    -42.540  0.0000E+00  0.0000E+00  0.0000E+00  0.0000E+00  0.0000E+00  0.0000E+00  0.0000E+00  0.0000E+00  0.0000E+00  0.0000E+00  0.0000E+00  0.0000E+00  0.0000E+00  0.0000E+00  0.0000E+00  0.0000E+00  0.0000E+00  0.0000E+00
    -42.353  0.0000E+00  0.0000E+00  0.0000E+00  0.0000E+00  0.0000E+00  0.0000E+00  0.0000E+00  0.0000E+00  0.0000E+00  0.0000E+00  0.0000E+00  0.0000E+00  0.0000E+00  0.0000E+00  0.0000E+00  0.0000E+00  0.0000E+00  0.0000E+00
    -42.166  0.0000E+00  0.0000E+00  0.0000E+00  0.0000E+00  0.0000E+00  0.0000E+00  0.0000E+00  0.0000E+00  0.0000E+00  0.0000E+00  0.0000E+00  0.0000E+00  0.0000E+00  0.0000E+00  0.0000E+00  0.0000E+00  0.0000E+00  0.0000E+00
    -41.978  0.0000E+00  0.0000E+00  0.0000E+00  0.0000E+00  0.0000E+00  0.0000E+00  0.0000E+00  0.0000E+00  0.0000E+00  0.0000E+00  0.0000E+00  0.0000E+00  0.0000E+00  0.0000E+00  0.0000E+00  0.0000E+00  0.0000E+00  0.0000E+00
    -41.791  0.0000E+00  0.0000E+00  0.0000E+00  0.0000E+00  0.0000E+00  0.0000E+00  0.0000E+00  0.0000E+00  0.0000E+00  0.0000E+00  0.0000E+00  0.0000E+00  0.0000E+00  0.0000E+00  0.0000E+00  0.0000E+00  0.0000E+00  0.0000E+00
    -41.604  0.0000E+00  0.0000E+00  0.0000E+00  0.0000E+00  0.0000E+00  0.0000E+00  0.0000E+00  0.0000E+00  0.0000E+00  0.0000E+00  0.0000E+00  0.0000E+00  0.0000E+00  0.0000E+00  0.0000E+00  0.0000E+00  0.0000E+00  0.0000E+00
    -41.417  0.0000E+00  0.0000E+00  0.0000E+00  0.0000E+00  0.0000E+00  0.0000E+00  0.0000E+00  0.0000E+00  0.0000E+00  0.0000E+00  0.0000E+00  0.0000E+00  0.0000E+00  0.0000E+00  0.0000E+00  0.0000E+00  0.0000E+00  0.0000E+00
    -41.230  0.0000E+00  0.0000E+00  0.0000E+00  0.0000E+00  0.0000E+00  0.0000E+00  0.0000E+00  0.0000E+00  0.0000E+00  0.0000E+00  0.0000E+00  0.0000E+00  0.0000E+00  0.0000E+00  0.0000E+00  0.0000E+00  0.0000E+00  0.0000E+00
    -41.043  0.0000E+00  0.0000E+00  0.0000E+00  0.0000E+00  0.0000E+00  0.0000E+00  0.0000E+00  0.0000E+00  0.0000E+00  0.0000E+00  0.0000E+00  0.0000E+00  0.0000E+00  0.0000E+00  0.0000E+00  0.0000E+00  0.0000E+00  0.0000E+00
    -40.855  0.0000E+00  0.0000E+00  0.0000E+00  0.0000E+00  0.0000E+00  0.0000E+00  0.0000E+00  0.0000E+00  0.0000E+00  0.0000E+00  0.0000E+00  0.0000E+00  0.0000E+00  0.0000E+00  0.0000E+00  0.0000E+00  0.0000E+00  0.0000E+00
    -40.668  0.0000E+00  0.0000E+00  0.0000E+00  0.0000E+00  0.0000E+00  0.0000E+00  0.0000E+00  0.0000E+00  0.0000E+00  0.0000E+00  0.0000E+00  0.0000E+00  0.0000E+00  0.0000E+00  0.0000E+00  0.0000E+00  0.0000E+00  0.0000E+00
    -40.481  0.0000E+00  0.0000E+00  0.0000E+00  0.0000E+00  0.0000E+00  0.0000E+00  0.0000E+00  0.0000E+00  0.0000E+00  0.0000E+00  0.0000E+00  0.0000E+00  0.0000E+00  0.0000E+00  0.0000E+00  0.0000E+00  0.0000E+00  0.0000E+00
    -40.294  0.0000E+00  0.0000E+00  0.0000E+00  0.0000E+00  0.0000E+00  0.0000E+00  0.0000E+00  0.0000E+00  0.0000E+00  0.0000E+00  0.0000E+00  0.0000E+00  0.0000E+00  0.0000E+00  0.0000E+00  0.0000E+00  0.0000E+00  0.0000E+00
    -40.107  0.0000E+00  0.0000E+00  0.0000E+00  0.0000E+00  0.0000E+00  0.0000E+00  0.0000E+00  0.0000E+00  0.0000E+00  0.0000E+00  0.0000E+00  0.0000E+00  0.0000E+00  0.0000E+00  0.0000E+00  0.0000E+00  0.0000E+00  0.0000E+00
    -39.919  0.0000E+00  0.0000E+00  0.0000E+00  0.0000E+00  0.0000E+00  0.0000E+00  0.0000E+00  0.0000E+00  0.0000E+00  0.0000E+00  0.0000E+00  0.0000E+00  0.0000E+00  0.0000E+00  0.0000E+00  0.0000E+00  0.0000E+00  0.0000E+00
    -39.732  0.0000E+00  0.0000E+00  0.0000E+00  0.0000E+00  0.0000E+00  0.0000E+00  0.0000E+00  0.0000E+00  0.0000E+00  0.0000E+00  0.0000E+00  0.0000E+00  0.0000E+00  0.0000E+00  0.0000E+00  0.0000E+00  0.0000E+00  0.0000E+00
    -39.545  0.0000E+00  0.0000E+00  0.0000E+00  0.0000E+00  0.0000E+00  0.0000E+00  0.0000E+00  0.0000E+00  0.0000E+00  0.0000E+00  0.0000E+00  0.0000E+00  0.0000E+00  0.0000E+00  0.0000E+00  0.0000E+00  0.0000E+00  0.0000E+00
    -39.358  0.0000E+00  0.0000E+00  0.0000E+00  0.0000E+00  0.0000E+00  0.0000E+00  0.0000E+00  0.0000E+00  0.0000E+00  0.0000E+00  0.0000E+00  0.0000E+00  0.0000E+00  0.0000E+00  0.0000E+00  0.0000E+00  0.0000E+00  0.0000E+00
    -39.171  0.0000E+00  0.0000E+00  0.0000E+00  0.0000E+00  0.0000E+00  0.0000E+00  0.0000E+00  0.0000E+00  0.0000E+00  0.0000E+00  0.0000E+00  0.0000E+00  0.0000E+00  0.0000E+00  0.0000E+00  0.0000E+00  0.0000E+00  0.0000E+00
    -38.984  0.0000E+00  0.0000E+00  0.0000E+00  0.0000E+00  0.0000E+00  0.0000E+00  0.0000E+00  0.0000E+00  0.0000E+00  0.0000E+00  0.0000E+00  0.0000E+00  0.0000E+00  0.0000E+00  0.0000E+00  0.0000E+00  0.0000E+00  0.0000E+00
    -38.796  0.0000E+00  0.0000E+00  0.0000E+00  0.0000E+00  0.0000E+00  0.0000E+00  0.0000E+00  0.0000E+00  0.0000E+00  0.0000E+00  0.0000E+00  0.0000E+00  0.0000E+00  0.0000E+00  0.0000E+00  0.0000E+00  0.0000E+00  0.0000E+00
    -38.609  0.0000E+00  0.0000E+00  0.0000E+00  0.0000E+00  0.0000E+00  0.0000E+00  0.0000E+00  0.0000E+00  0.0000E+00  0.0000E+00  0.0000E+00  0.0000E+00  0.0000E+00  0.0000E+00  0.0000E+00  0.0000E+00  0.0000E+00  0.0000E+00
    -38.422  0.0000E+00  0.0000E+00  0.0000E+00  0.0000E+00  0.0000E+00  0.0000E+00  0.0000E+00  0.0000E+00  0.0000E+00  0.0000E+00  0.0000E+00  0.0000E+00  0.0000E+00  0.0000E+00  0.0000E+00  0.0000E+00  0.0000E+00  0.0000E+00
    -38.235  0.0000E+00  0.0000E+00  0.0000E+00  0.0000E+00  0.0000E+00  0.0000E+00  0.0000E+00  0.0000E+00  0.0000E+00  0.0000E+00  0.0000E+00  0.0000E+00  0.0000E+00  0.0000E+00  0.0000E+00  0.0000E+00  0.0000E+00  0.0000E+00
    -38.048  0.0000E+00  0.0000E+00  0.0000E+00  0.0000E+00  0.0000E+00  0.0000E+00  0.0000E+00  0.0000E+00  0.0000E+00  0.0000E+00  0.0000E+00  0.0000E+00  0.0000E+00  0.0000E+00  0.0000E+00  0.0000E+00  0.0000E+00  0.0000E+00
    -37.860  0.0000E+00  0.0000E+00  0.0000E+00  0.0000E+00  0.0000E+00  0.0000E+00  0.0000E+00  0.0000E+00  0.0000E+00  0.0000E+00  0.0000E+00  0.0000E+00  0.0000E+00  0.0000E+00  0.0000E+00  0.0000E+00  0.0000E+00  0.0000E+00
    -37.673  0.0000E+00  0.0000E+00  0.0000E+00  0.0000E+00  0.0000E+00  0.0000E+00  0.0000E+00  0.0000E+00  0.0000E+00  0.0000E+00  0.0000E+00  0.0000E+00  0.0000E+00  0.0000E+00  0.0000E+00  0.0000E+00  0.0000E+00  0.0000E+00
    -37.486  0.0000E+00  0.0000E+00  0.0000E+00  0.0000E+00  0.0000E+00  0.0000E+00  0.0000E+00  0.0000E+00  0.0000E+00  0.0000E+00  0.0000E+00  0.0000E+00  0.0000E+00  0.0000E+00  0.0000E+00  0.0000E+00  0.0000E+00  0.0000E+00
    -37.299  0.0000E+00  0.0000E+00  0.0000E+00  0.0000E+00  0.0000E+00  0.0000E+00  0.0000E+00  0.0000E+00  0.0000E+00  0.0000E+00  0.0000E+00  0.0000E+00  0.0000E+00  0.0000E+00  0.0000E+00  0.0000E+00  0.0000E+00  0.0000E+00
    -37.112  0.0000E+00  0.0000E+00  0.0000E+00  0.0000E+00  0.0000E+00  0.0000E+00  0.0000E+00  0.0000E+00  0.0000E+00  0.0000E+00  0.0000E+00  0.0000E+00  0.0000E+00  0.0000E+00  0.0000E+00  0.0000E+00  0.0000E+00  0.0000E+00
    -36.925  0.0000E+00  0.0000E+00  0.0000E+00  0.0000E+00  0.0000E+00  0.0000E+00  0.0000E+00  0.0000E+00  0.0000E+00  0.0000E+00  0.0000E+00  0.0000E+00  0.0000E+00  0.0000E+00  0.0000E+00  0.0000E+00  0.0000E+00  0.0000E+00
    -36.737  0.0000E+00  0.0000E+00  0.0000E+00  0.0000E+00  0.0000E+00  0.0000E+00  0.0000E+00  0.0000E+00  0.0000E+00  0.0000E+00  0.0000E+00  0.0000E+00  0.0000E+00  0.0000E+00  0.0000E+00  0.0000E+00  0.0000E+00  0.0000E+00