   9   9   1   0
  0.2271208E+02  0.3568691E-09  0.3568691E-09  0.1853323E-08  0.5000000E-15
  1.000000000000000E-004
  CAR 
 unknown system                          
     13.11062749    -42.70136039  301      1.01948355      1.00000000
    -42.701  0.0000E+00  0.0000E+00  0.0000E+00  0.0000E+00
    -42.515  0.0000E+00  0.0000E+00  0.0000E+00  0.0000E+00
    -42.329  0.0000E+00  0.0000E+00  0.0000E+00  0.0000E+00
    -42.143  0.0000E+00  0.0000E+00  0.0000E+00  0.0000E+00
    -41.957  0.0000E+00  0.0000E+00  0.0000E+00  0.0000E+00
    -41.771  0.0000E+00  0.0000E+00  0.0000E+00  0.0000E+00
    -41.585  0.0000E+00  0.0000E+00  0.0000E+00  0.0000E+00
    -41.399  0.0000E+00  0.0000E+00  0.0000E+00  0.0000E+00
    -41.213  0.0000E+00  0.0000E+00  0.0000E+00  0.0000E+00
    -41.027  0.0000E+00  0.0000E+00  0.0000E+00  0.0000E+00
    -40.841  0.0000E+00  0.0000E+00  0.0000E+00  0.0000E+00
    -40.655  0.2460E-02  0.2450E-02  0.4577E-03  0.4559E-03
    -40.469  0.9892E-01  0.9854E-01  0.1886E-01  0.1879E-01
    -40.283  0.3759E+01  0.3745E+01  0.7182E+00  0.7156E+00
    -40.097  0.3394E+02  0.3393E+02  0.7033E+01  0.7027E+01
    -39.911  0.1025E+02  0.1028E+02  0.8939E+01  0.8939E+01
    -39.725  0.0000E+00  0.0000E+00  0.9000E+01  0.9000E+01
    -39.539  0.0000E+00  0.0000E+00  0.9000E+01  0.9000E+01
    -39.353  0.0000E+00  0.0000E+00  0.9000E+01  0.9000E+01
    -39.167  0.0000E+00  0.0000E+00  0.9000E+01  0.9000E+01
    -38.981  0.0000E+00  0.0000E+00  0.9000E+01  0.9000E+01
    -38.795  0.0000E+00  0.0000E+00  0.9000E+01  0.9000E+01
    -38.608  0.0000E+00  0.0000E+00  0.9000E+01  0.9000E+01
    -38.422  0.0000E+00  0.0000E+00  0.9000E+01  0.9000E+01
    -38.236  0.0000E+00  0.0000E+00  0.9000E+01  0.9000E+01
    -38.050  0.0000E+00  0.0000E+00  0.9000E+01  0.9000E+01
    -37.864  0.0000E+00  0.0000E+00  0.9000E+01  0.9000E+01
    -37.678  0.0000E+00  0.0000E+00  0.9000E+01  0.9000E+01
    -37.492  0.0000E+00  0.0000E+00  0.9000E+01  0.9000E+01
    -37.306  0.0000E+00  0.0000E+00  0.9000E+01  0.9000E+01
    -37.120  0.0000E+00  0.0000E+00  0.9000E+01  0.9000E+01
    -36.934  0.0000E+00  0.0000E+00  0.9000E+01  0.9000E+01
    -36.748  0.0000E+00  0.0000E+00  0.9000E+01  0.9000E+01
    -36.562  0.0000E+00  0.0000E+00  0.9000E+01  0.9000E+01
    -36.376  0.0000E+00  0.0000E+00  0.9000E+01  0.9000E+01
    -36.190  0.0000E+00  0.0000E+00  0.9000E+01  0.9000E+01
    -36.004  0.0000E+00  0.0000E+00  0.9000E+01  0.9000E+01
    -35.818  0.0000E+00  0.0000E+00  0.9000E+01  0.9000E+01
    -35.632  0.0000E+00  0.0000E+00  0.9000E+01  0.9000E+01
    -35.446  0.0000E+00  0.0000E+00  0.9000E+01  0.9000E+01
    -35.260  0.0000E+00  0.0000E+00  0.9000E+01  0.9000E+01
    -35.074  0.0000E+00  0.0000E+00  0.9000E+01  0.9000E+01
    -34.888  0.0000E+00  0.0000E+00  0.9000E+01  0.9000E+01
    -34.702  0.0000E+00  0.0000E+00  0.9000E+01  0.9000E+01
    -34.516  0.0000E+00  0.0000E+00  0.9000E+01  0.9000E+01
    -34.330  0.0000E+00  0.0000E+00  0.9000E+01  0.9000E+01
    -34.144  0.0000E+00  0.0000E+00  0.9000E+01  0.9000E+01
    -33.957  0.0000E+00  0.0000E+00  0.9000E+01  0.9000E+01
    -33.771  0.0000E+00  0.0000E+00  0.9000E+01  0.9000E+01
    -33.585  0.0000E+00  0.0000E+00  0.9000E+01  0.9000E+01
    -33.399  0.0000E+00  0.0000E+00  0.9000E+01  0.9000E+01
    -33.213  0.0000E+00  0.0000E+00  0.9000E+01  0.9000E+01
    -33.027  0.0000E+00  0.0000E+00  0.9000E+01  0.9000E+01
    -32.841  0.0000E+00  0.0000E+00  0.9000E+01  0.9000E+01
    -32.655  0.0000E+00  0.0000E+00  0.9000E+01  0.9000E+01
    -32.469  0.0000E+00  0.0000E+00  0.9000E+01  0.9000E+01
    -32.283  0.0000E+00  0.0000E+00  0.9000E+01  0.9000E+01
    -32.097  0.0000E+00  0.0000E+00  0.9000E+01  0.9000E+01
    -31.911  0.0000E+00  0.0000E+00  0.9000E+01  0.9000E+01
    -31.725  0.0000E+00  0.0000E+00  0.9000E+01  0.9000E+01
    -31.539  0.0000E+00  0.0000E+00  0.9000E+01  0.9000E+01
    -31.353  0.0000E+00  0.0000E+00  0.9000E+01  0.9000E+01
    -31.167  0.0000E+00  0.0000E+00  0.9000E+01  0.9000E+01
    -30.981  0.0000E+00  0.0000E+00  0.9000E+01  0.9000E+01
    -30.795  0.0000E+00  0.0000E+00  0.9000E+01  0.9000E+01
    -30.609  0.0000E+00  0.0000E+00  0.9000E+01  0.9000E+01
    -30.423  0.0000E+00  0.0000E+00  0.9000E+01  0.9000E+01
    -30.237  0.0000E+00  0.0000E+00  0.9000E+01  0.9000E+01
    -30.051  0.0000E+00  0.0000E+00  0.9000E+01  0.9000E+01
    -29.865  0.0000E+00  0.0000E+00  0.9000E+01  0.9000E+01
    -29.679  0.0000E+00  0.0000E+00  0.9000E+01  0.9000E+01
    -29.493  0.0000E+00  0.0000E+00  0.9000E+01  0.9000E+01
    -29.306  0.0000E+00  0.0000E+00  0.9000E+01  0.9000E+01
    -29.120  0.0000E+00  0.0000E+00  0.9000E+01  0.9000E+01
    -28.934  0.0000E+00  0.0000E+00  0.9000E+01  0.9000E+01
    -28.748  0.0000E+00  0.0000E+00  0.9000E+01  0.9000E+01
    -28.562  0.0000E+00  0.0000E+00  0.9000E+01  0.9000E+01
    -28.376  0.0000E+00  0.0000E+00  0.9000E+01  0.9000E+01
    -28.190  0.0000E+00  0.0000E+00  0.9000E+01  0.9000E+01
    -28.004  0.0000E+00  0.0000E+00  0.9000E+01  0.9000E+01
    -27.818  0.0000E+00  0.0000E+00  0.9000E+01  0.9000E+01
    -27.632  0.0000E+00  0.0000E+00  0.9000E+01  0.9000E+01
    -27.446  0.0000E+00  0.0000E+00  0.9000E+01  0.9000E+01
    -27.260  0.0000E+00  0.0000E+00  0.9000E+01  0.9000E+01
    -27.074  0.0000E+00  0.0000E+00  0.9000E+01  0.9000E+01
    -26.888  0.0000E+00  0.0000E+00  0.9000E+01  0.9000E+01
    -26.702  0.0000E+00  0.0000E+00  0.9000E+01  0.9000E+01
    -26.516  0.0000E+00  0.0000E+00  0.9000E+01  0.9000E+01
    -26.330  0.0000E+00  0.0000E+00  0.9000E+01  0.9000E+01
    -26.144  0.0000E+00  0.0000E+00  0.9000E+01  0.9000E+01
    -25.958  0.0000E+00  0.0000E+00  0.9000E+01  0.9000E+01
    -25.772  0.0000E+00  0.0000E+00  0.9000E+01  0.9000E+01
    -25.586  0.0000E+00  0.0000E+00  0.9000E+01  0.9000E+01
    -25.400  0.0000E+00  0.0000E+00  0.9000E+01  0.9000E+01
    -25.214  0.0000E+00  0.0000E+00  0.9000E+01  0.9000E+01
    -25.028  0.0000E+00  0.0000E+00  0.9000E+01  0.9000E+01
    -24.842  0.0000E+00  0.0000E+00  0.9000E+01  0.9000E+01
    -24.655  0.0000E+00  0.0000E+00  0.9000E+01  0.9000E+01
    -24.469  0.0000E+00  0.0000E+00  0.9000E+01  0.9000E+01
    -24.283  0.0000E+00  0.0000E+00  0.9000E+01  0.9000E+01
    -24.097  0.0000E+00  0.0000E+00  0.9000E+01  0.9000E+01
    -23.911  0.0000E+00  0.0000E+00  0.9000E+01  0.9000E+01
    -23.725  0.0000E+00  0.0000E+00  0.9000E+01  0.9000E+01
    -23.539  0.0000E+00  0.0000E+00  0.9000E+01  0.9000E+01
    -23.353  0.0000E+00  0.0000E+00  0.9000E+01  0.9000E+01
    -23.167  0.0000E+00  0.0000E+00  0.9000E+01  0.9000E+01
    -22.981  0.0000E+00  0.0000E+00  0.9000E+01  0.9000E+01
    -22.795  0.0000E+00  0.0000E+00  0.9000E+01  0.9000E+01
    -22.609  0.0000E+00  0.0000E+00  0.9000E+01  0.9000E+01
    -22.423  0.0000E+00  0.0000E+00  0.9000E+01  0.9000E+01
    -22.237  0.0000E+00  0.0000E+00  0.9000E+01  0.9000E+01
    -22.051  0.0000E+00  0.0000E+00  0.9000E+01  0.9000E+01
    -21.865  0.0000E+00  0.0000E+00  0.9000E+01  0.9000E+01
    -21.679  0.0000E+00  0.0000E+00  0.9000E+01  0.9000E+01
    -21.493  0.0000E+00  0.0000E+00  0.9000E+01  0.9000E+01
    -21.307  0.0000E+00  0.0000E+00  0.9000E+01  0.9000E+01
    -21.121  0.0000E+00  0.0000E+00  0.9000E+01  0.9000E+01
    -20.935  0.0000E+00  0.0000E+00  0.9000E+01  0.9000E+01
    -20.749  0.0000E+00  0.0000E+00  0.9000E+01  0.9000E+01
    -20.563  0.0000E+00  0.0000E+00  0.9000E+01  0.9000E+01
    -20.377  0.0000E+00  0.0000E+00  0.9000E+01  0.9000E+01
    -20.191  0.0000E+00  0.0000E+00  0.9000E+01  0.9000E+01
    -20.004  0.0000E+00  0.0000E+00  0.9000E+01  0.9000E+01
    -19.818  0.0000E+00  0.0000E+00  0.9000E+01  0.9000E+01
    -19.632  0.0000E+00  0.0000E+00  0.9000E+01  0.9000E+01
    -19.446  0.0000E+00  0.0000E+00  0.9000E+01  0.9000E+01
    -19.260  0.0000E+00  0.0000E+00  0.9000E+01  0.9000E+01
    -19.074  0.0000E+00  0.0000E+00  0.9000E+01  0.9000E+01
    -18.888  0.0000E+00  0.0000E+00  0.9000E+01  0.9000E+01
    -18.702  0.0000E+00  0.0000E+00  0.9000E+01  0.9000E+01
    -18.516  0.0000E+00  0.0000E+00  0.9000E+01  0.9000E+01
    -18.330  0.0000E+00  0.0000E+00  0.9000E+01  0.9000E+01
    -18.144  0.0000E+00  0.0000E+00  0.9000E+01  0.9000E+01
    -17.958  0.0000E+00  0.0000E+00  0.9000E+01  0.9000E+01
    -17.772  0.0000E+00  0.0000E+00  0.9000E+01  0.9000E+01
    -17.586  0.0000E+00  0.0000E+00  0.9000E+01  0.9000E+01
    -17.400  0.0000E+00  0.0000E+00  0.9000E+01  0.9000E+01
    -17.214  0.0000E+00  0.0000E+00  0.9000E+01  0.9000E+01
    -17.028  0.0000E+00  0.0000E+00  0.9000E+01  0.9000E+01
    -16.842  0.0000E+00  0.0000E+00  0.9000E+01  0.9000E+01
    -16.656  0.0000E+00  0.0000E+00  0.9000E+01  0.9000E+01
    -16.470  0.0000E+00  0.0000E+00  0.9000E+01  0.9000E+01
    -16.284  0.0000E+00  0.0000E+00  0.9000E+01  0.9000E+01
    -16.098  0.0000E+00  0.0000E+00  0.9000E+01  0.9000E+01
    -15.912  0.0000E+00  0.0000E+00  0.9000E+01  0.9000E+01
    -15.726  0.0000E+00  0.0000E+00  0.9000E+01  0.9000E+01
    -15.540  0.0000E+00  0.0000E+00  0.9000E+01  0.9000E+01
    -15.353  0.0000E+00  0.0000E+00  0.9000E+01  0.9000E+01
    -15.167  0.0000E+00  0.0000E+00  0.9000E+01  0.9000E+01
    -14.981  0.0000E+00  0.0000E+00  0.9000E+01  0.9000E+01
    -14.795  0.0000E+00  0.0000E+00  0.9000E+01  0.9000E+01
    -14.609  0.8928E-05  0.8966E-05  0.9000E+01  0.9000E+01
    -14.423  0.5521E-03  0.5546E-03  0.9000E+01  0.9000E+01
    -14.237  0.2192E-01  0.2201E-01  0.9004E+01  0.9004E+01
    -14.051  0.4666E+00  0.4679E+00  0.9091E+01  0.9091E+01
    -13.865  0.1723E+01  0.1723E+01  0.9411E+01  0.9412E+01
    -13.679  0.2358E+01  0.2361E+01  0.9850E+01  0.9851E+01
    -13.493  0.2466E+01  0.2467E+01  0.1031E+02  0.1031E+02
    -13.307  0.4954E+01  0.4959E+01  0.1123E+02  0.1124E+02
    -13.121  0.8822E+01  0.8831E+01  0.1288E+02  0.1288E+02
    -12.935  0.1020E+02  0.1019E+02  0.1478E+02  0.1478E+02
    -12.749  0.1126E+01  0.1120E+01  0.1499E+02  0.1499E+02
    -12.563  0.0000E+00  0.0000E+00  0.1500E+02  0.1500E+02
    -12.377  0.0000E+00  0.0000E+00  0.1500E+02  0.1500E+02
    -12.191  0.0000E+00  0.0000E+00  0.1500E+02  0.1500E+02
    -12.005  0.0000E+00  0.0000E+00  0.1500E+02  0.1500E+02
    -11.819  0.0000E+00  0.0000E+00  0.1500E+02  0.1500E+02
    -11.633  0.0000E+00  0.0000E+00  0.1500E+02  0.1500E+02
    -11.447  0.0000E+00  0.0000E+00  0.1500E+02  0.1500E+02
    -11.261  0.0000E+00  0.0000E+00  0.1500E+02  0.1500E+02
    -11.075  0.0000E+00  0.0000E+00  0.1500E+02  0.1500E+02
    -10.889  0.0000E+00  0.0000E+00  0.1500E+02  0.1500E+02
    -10.702  0.0000E+00  0.0000E+00  0.1500E+02  0.1500E+02
    -10.516  0.0000E+00  0.0000E+00  0.1500E+02  0.1500E+02
    -10.330  0.0000E+00  0.0000E+00  0.1500E+02  0.1500E+02
    -10.144  0.0000E+00  0.0000E+00  0.1500E+02  0.1500E+02
     -9.958  0.0000E+00  0.0000E+00  0.1500E+02  0.1500E+02
     -9.772  0.0000E+00  0.0000E+00  0.1500E+02  0.1500E+02
     -9.586  0.0000E+00  0.0000E+00  0.1500E+02  0.1500E+02
     -9.400  0.0000E+00  0.0000E+00  0.1500E+02  0.1500E+02
     -9.214  0.0000E+00  0.0000E+00  0.1500E+02  0.1500E+02
     -9.028  0.0000E+00  0.0000E+00  0.1500E+02  0.1500E+02
     -8.842  0.0000E+00  0.0000E+00  0.1500E+02  0.1500E+02
     -8.656  0.0000E+00  0.0000E+00  0.1500E+02  0.1500E+02
     -8.470  0.0000E+00  0.0000E+00  0.1500E+02  0.1500E+02
     -8.284  0.0000E+00  0.0000E+00  0.1500E+02  0.1500E+02
     -8.098  0.0000E+00  0.0000E+00  0.1500E+02  0.1500E+02
     -7.912  0.0000E+00  0.0000E+00  0.1500E+02  0.1500E+02
     -7.726  0.0000E+00  0.0000E+00  0.1500E+02  0.1500E+02
     -7.540  0.0000E+00  0.0000E+00  0.1500E+02  0.1500E+02
     -7.354  0.0000E+00  0.0000E+00  0.1500E+02  0.1500E+02
     -7.168  0.0000E+00  0.0000E+00  0.1500E+02  0.1500E+02
     -6.982  0.0000E+00  0.0000E+00  0.1500E+02  0.1500E+02
     -6.796  0.0000E+00  0.0000E+00  0.1500E+02  0.1500E+02
     -6.610  0.0000E+00  0.0000E+00  0.1500E+02  0.1500E+02
     -6.424  0.0000E+00  0.0000E+00  0.1500E+02  0.1500E+02
     -6.238  0.0000E+00  0.0000E+00  0.1500E+02  0.1500E+02
     -6.051  0.0000E+00  0.0000E+00  0.1500E+02  0.1500E+02
     -5.865  0.0000E+00  0.0000E+00  0.1500E+02  0.1500E+02
     -5.679  0.0000E+00  0.0000E+00  0.1500E+02  0.1500E+02
     -5.493  0.0000E+00  0.0000E+00  0.1500E+02  0.1500E+02
     -5.307  0.0000E+00  0.0000E+00  0.1500E+02  0.1500E+02
     -5.121  0.0000E+00  0.0000E+00  0.1500E+02  0.1500E+02
     -4.935  0.0000E+00  0.0000E+00  0.1500E+02  0.1500E+02
     -4.749  0.0000E+00  0.0000E+00  0.1500E+02  0.1500E+02
     -4.563  0.0000E+00  0.0000E+00  0.1500E+02  0.1500E+02
     -4.377  0.0000E+00  0.0000E+00  0.1500E+02  0.1500E+02
     -4.191  0.4427E-04  0.4399E-04  0.1500E+02  0.1500E+02
     -4.005  0.2110E-02  0.2097E-02  0.1500E+02  0.1500E+02
     -3.819  0.8364E-01  0.8314E-01  0.1502E+02  0.1502E+02
     -3.633  0.1495E+01  0.1490E+01  0.1529E+02  0.1529E+02
     -3.447  0.2487E+01  0.2489E+01  0.1576E+02  0.1576E+02
     -3.261  0.3868E+01  0.3862E+01  0.1648E+02  0.1648E+02
     -3.075  0.4913E+01  0.4911E+01  0.1739E+02  0.1739E+02
     -2.889  0.7448E+01  0.7446E+01  0.1878E+02  0.1878E+02
     -2.703  0.5541E+01  0.5550E+01  0.1982E+02  0.1982E+02
     -2.517  0.2776E+01  0.2777E+01  0.2034E+02  0.2034E+02
     -2.331  0.1419E+01  0.1421E+01  0.2060E+02  0.2060E+02
     -2.145  0.1542E+01  0.1541E+01  0.2089E+02  0.2089E+02
     -1.959  0.3632E+01  0.3631E+01  0.2157E+02  0.2157E+02
     -1.773  0.4287E+01  0.4287E+01  0.2236E+02  0.2236E+02
     -1.587  0.4445E+01  0.4447E+01  0.2320E+02  0.2320E+02
     -1.400  0.6985E+01  0.6985E+01  0.2450E+02  0.2450E+02
     -1.214  0.5880E+01  0.5881E+01  0.2559E+02  0.2560E+02
     -1.028  0.5081E+01  0.5085E+01  0.2655E+02  0.2655E+02
     -0.842  0.9995E+01  0.9996E+01  0.2841E+02  0.2841E+02
     -0.656  0.9542E+01  0.9545E+01  0.3019E+02  0.3019E+02
     -0.470  0.9331E+01  0.9331E+01  0.3193E+02  0.3193E+02
     -0.284  0.4471E+01  0.4467E+01  0.3277E+02  0.3277E+02
     -0.098  0.1136E+01  0.1134E+01  0.3299E+02  0.3299E+02
      0.088  0.6229E-01  0.6198E-01  0.3300E+02  0.3300E+02
      0.274  0.0000E+00  0.0000E+00  0.3300E+02  0.3300E+02
      0.460  0.0000E+00  0.0000E+00  0.3300E+02  0.3300E+02
      0.646  0.0000E+00  0.0000E+00  0.3300E+02  0.3300E+02
      0.832  0.0000E+00  0.0000E+00  0.3300E+02  0.3300E+02
      1.018  0.0000E+00  0.0000E+00  0.3300E+02  0.3300E+02
      1.204  0.0000E+00  0.0000E+00  0.3300E+02  0.3300E+02
      1.390  0.0000E+00  0.0000E+00  0.3300E+02  0.3300E+02
      1.576  0.0000E+00  0.0000E+00  0.3300E+02  0.3300E+02
      1.762  0.0000E+00  0.0000E+00  0.3300E+02  0.3300E+02
      1.948  0.0000E+00  0.0000E+00  0.3300E+02  0.3300E+02
      2.134  0.0000E+00  0.0000E+00  0.3300E+02  0.3300E+02
      2.320  0.0000E+00  0.0000E+00  0.3300E+02  0.3300E+02
      2.506  0.0000E+00  0.0000E+00  0.3300E+02  0.3300E+02
      2.692  0.0000E+00  0.0000E+00  0.3300E+02  0.3300E+02
      2.878  0.0000E+00  0.0000E+00  0.3300E+02  0.3300E+02
      3.064  0.0000E+00  0.0000E+00  0.3300E+02  0.3300E+02
      3.251  0.0000E+00  0.0000E+00  0.3300E+02  0.3300E+02
      3.437  0.0000E+00  0.0000E+00  0.3300E+02  0.3300E+02
      3.623  0.0000E+00  0.0000E+00  0.3300E+02  0.3300E+02
      3.809  0.0000E+00  0.0000E+00  0.3300E+02  0.3300E+02
      3.995  0.0000E+00  0.0000E+00  0.3300E+02  0.3300E+02
      4.181  0.0000E+00  0.0000E+00  0.3300E+02  0.3300E+02
      4.367  0.0000E+00  0.0000E+00  0.3300E+02  0.3300E+02
      4.553  0.0000E+00  0.0000E+00  0.3300E+02  0.3300E+02
      4.739  0.0000E+00  0.0000E+00  0.3300E+02  0.3300E+02
      4.925  0.0000E+00  0.0000E+00  0.3300E+02  0.3300E+02
      5.111  0.0000E+00  0.0000E+00  0.3300E+02  0.3300E+02
      5.297  0.3746E-05  0.3730E-05  0.3300E+02  0.3300E+02
      5.483  0.1507E-03  0.1501E-03  0.3300E+02  0.3300E+02
      5.669  0.5883E-02  0.5859E-02  0.3300E+02  0.3300E+02
      5.855  0.7145E-01  0.7137E-01  0.3301E+02  0.3301E+02
      6.041  0.3116E-01  0.3125E-01  0.3302E+02  0.3302E+02
      6.227  0.1624E-02  0.1615E-02  0.3302E+02  0.3302E+02
      6.413  0.6163E-01  0.6130E-01  0.3303E+02  0.3303E+02
      6.599  0.6379E+00  0.6369E+00  0.3315E+02  0.3315E+02
      6.785  0.7125E+00  0.7118E+00  0.3328E+02  0.3328E+02
      6.971  0.8206E+00  0.8158E+00  0.3344E+02  0.3344E+02
      7.157  0.1721E+01  0.1719E+01  0.3376E+02  0.3376E+02
      7.343  0.1579E+01  0.1580E+01  0.3405E+02  0.3405E+02
      7.529  0.2925E+01  0.2911E+01  0.3460E+02  0.3459E+02
      7.715  0.3934E+01  0.3926E+01  0.3533E+02  0.3532E+02
      7.902  0.5009E+01  0.5008E+01  0.3626E+02  0.3626E+02
      8.088  0.3671E+01  0.3672E+01  0.3695E+02  0.3694E+02
      8.274  0.2722E+01  0.2731E+01  0.3746E+02  0.3745E+02
      8.460  0.2100E+01  0.2036E+01  0.3785E+02  0.3783E+02
      8.646  0.4091E+01  0.4086E+01  0.3861E+02  0.3860E+02
      8.832  0.3643E+01  0.3663E+01  0.3929E+02  0.3928E+02
      9.018  0.5252E+01  0.5218E+01  0.4027E+02  0.4025E+02
      9.204  0.2950E+01  0.2865E+01  0.4082E+02  0.4079E+02
      9.390  0.2082E+01  0.2169E+01  0.4121E+02  0.4120E+02
      9.576  0.3639E+01  0.3682E+01  0.4189E+02  0.4188E+02
      9.762  0.2271E+01  0.2300E+01  0.4232E+02  0.4231E+02
      9.948  0.2007E+01  0.2144E+01  0.4269E+02  0.4271E+02
     10.134  0.2670E+01  0.2325E+01  0.4319E+02  0.4315E+02
     10.320  0.2902E+01  0.3079E+01  0.4373E+02  0.4372E+02
     10.506  0.8859E+00  0.1080E+01  0.4390E+02  0.4393E+02
     10.692  0.4804E+00  0.3679E+00  0.4399E+02  0.4400E+02
     10.878  0.5489E-01  0.1891E-01  0.4400E+02  0.4400E+02
     11.064  0.0000E+00  0.0000E+00  0.4400E+02  0.4400E+02
     11.250  0.0000E+00  0.0000E+00  0.4400E+02  0.4400E+02
     11.436  0.0000E+00  0.0000E+00  0.4400E+02  0.4400E+02
     11.622  0.0000E+00  0.0000E+00  0.4400E+02  0.4400E+02
     11.808  0.0000E+00  0.0000E+00  0.4400E+02  0.4400E+02
     11.994  0.0000E+00  0.0000E+00  0.4400E+02  0.4400E+02
     12.180  0.0000E+00  0.0000E+00  0.4400E+02  0.4400E+02
     12.366  0.0000E+00  0.0000E+00  0.4400E+02  0.4400E+02
     12.553  0.0000E+00  0.0000E+00  0.4400E+02  0.4400E+02
     12.739  0.0000E+00  0.0000E+00  0.4400E+02  0.4400E+02
     12.925  0.0000E+00  0.0000E+00  0.4400E+02  0.4400E+02
     13.111  0.0000E+00  0.0000E+00  0.4400E+02  0.4400E+02
     13.11062749    -42.70136039  301      1.01948355      1.00000000
    -42.701  0.0000E+00  0.0000E+00  0.0000E+00  0.0000E+00  0.0000E+00  0.0000E+00  0.0000E+00  0.0000E+00  0.0000E+00  0.0000E+00  0.0000E+00  0.0000E+00  0.0000E+00  0.0000E+00  0.0000E+00  0.0000E+00  0.0000E+00  0.0000E+00
    -42.515  0.0000E+00  0.0000E+00  0.0000E+00  0.0000E+00  0.0000E+00  0.0000E+00  0.0000E+00  0.0000E+00  0.0000E+00  0.0000E+00  0.0000E+00  0.0000E+00  0.0000E+00  0.0000E+00  0.0000E+00  0.0000E+00  0.0000E+00  0.0000E+00
    -42.329  0.0000E+00  0.0000E+00  0.0000E+00  0.0000E+00  0.0000E+00  0.0000E+00  0.0000E+00  0.0000E+00  0.0000E+00  0.0000E+00  0.0000E+00  0.0000E+00  0.0000E+00  0.0000E+00  0.0000E+00  0.0000E+00  0.0000E+00  0.0000E+00
    -42.143  0.0000E+00  0.0000E+00  0.0000E+00  0.0000E+00  0.0000E+00  0.0000E+00  0.0000E+00  0.0000E+00  0.0000E+00  0.0000E+00  0.0000E+00  0.0000E+00  0.0000E+00  0.0000E+00  0.0000E+00  0.0000E+00  0.0000E+00  0.0000E+00
    -41.957  0.0000E+00  0.0000E+00  0.0000E+00  0.0000E+00  0.0000E+00  0.0000E+00  0.0000E+00  0.0000E+00  0.0000E+00  0.0000E+00  0.0000E+00  0.0000E+00  0.0000E+00  0.0000E+00  0.0000E+00  0.0000E+00  0.0000E+00  0.0000E+00
    -41.771  0.0000E+00  0.0000E+00  0.0000E+00  0.0000E+00  0.0000E+00  0.0000E+00  0.0000E+00  0.0000E+00  0.0000E+00  0.0000E+00  0.0000E+00  0.0000E+00  0.0000E+00  0.0000E+00  0.0000E+00  0.0000E+00  0.0000E+00  0.0000E+00
    -41.585  0.0000E+00  0.0000E+00  0.0000E+00  0.0000E+00  0.0000E+00  0.0000E+00  0.0000E+00  0.0000E+00  0.0000E+00  0.0000E+00  0.0000E+00  0.0000E+00  0.0000E+00  0.0000E+00  0.0000E+00  0.0000E+00  0.0000E+00  0.0000E+00
    -41.399  0.0000E+00  0.0000E+00  0.0000E+00  0.0000E+00  0.0000E+00  0.0000E+00  0.0000E+00  0.0000E+00  0.0000E+00  0.0000E+00  0.0000E+00  0.0000E+00  0.0000E+00  0.0000E+00  0.0000E+00  0.0000E+00  0.0000E+00  0.0000E+00
    -41.213  0.0000E+00  0.0000E+00  0.0000E+00  0.0000E+00  0.0000E+00  0.0000E+00  0.0000E+00  0.0000E+00  0.0000E+00  0.0000E+00  0.0000E+00  0.0000E+00  0.0000E+00  0.0000E+00  0.0000E+00  0.0000E+00  0.0000E+00  0.0000E+00
    -41.027  0.0000E+00  0.0000E+00  0.0000E+00  0.0000E+00  0.0000E+00  0.0000E+00  0.0000E+00  0.0000E+00  0.0000E+00  0.0000E+00  0.0000E+00  0.0000E+00  0.0000E+00  0.0000E+00  0.0000E+00  0.0000E+00  0.0000E+00  0.0000E+00
    -40.841  0.0000E+00  0.0000E+00  0.0000E+00  0.0000E+00  0.0000E+00  0.0000E+00  0.0000E+00  0.0000E+00  0.0000E+00  0.0000E+00  0.0000E+00  0.0000E+00  0.0000E+00  0.0000E+00  0.0000E+00  0.0000E+00  0.0000E+00  0.0000E+00
    -40.655  0.1014E-10  0.1010E-10  0.2677E-03  0.2667E-03  0.2795E-03  0.2783E-03  0.2677E-03  0.2667E-03  0.9169E-12  0.9162E-12  0.9619E-13  0.9587E-13  0.5284E-12  0.5284E-12  0.9619E-13  0.9587E-13  0.9169E-12  0.9162E-12
    -40.469  0.4077E-09  0.4060E-09  0.1076E-01  0.1072E-01  0.1124E-01  0.1119E-01  0.1076E-01  0.1072E-01  0.3687E-10  0.3684E-10  0.3868E-11  0.3855E-11  0.2125E-10  0.2125E-10  0.3868E-11  0.3855E-11  0.3687E-10  0.3684E-10
    -40.283  0.1549E-07  0.1543E-07  0.4095E+00  0.4081E+00  0.4261E+00  0.4244E+00  0.4095E+00  0.4081E+00  0.1403E-08  0.1402E-08  0.1467E-09  0.1462E-09  0.8072E-09  0.8074E-09  0.1467E-09  0.1462E-09  0.1403E-08  0.1402E-08
    -40.097  0.1395E-06  0.1394E-06  0.3740E+01  0.3738E+01  0.3764E+01  0.3762E+01  0.3740E+01  0.3738E+01  0.1281E-07  0.1285E-07  0.1299E-08  0.1299E-08  0.7273E-08  0.7296E-08  0.1299E-08  0.1299E-08  0.1281E-07  0.1285E-07
    -39.911  0.4197E-07  0.4207E-07  0.1144E+01  0.1148E+01  0.1105E+01  0.1109E+01  0.1144E+01  0.1148E+01  0.3920E-08  0.3943E-08  0.3829E-09  0.3843E-09  0.2188E-08  0.2203E-08  0.3829E-09  0.3843E-09  0.3920E-08  0.3943E-08
    -39.725  0.0000E+00  0.0000E+00  0.0000E+00  0.0000E+00  0.0000E+00  0.0000E+00  0.0000E+00  0.0000E+00  0.0000E+00  0.0000E+00  0.0000E+00  0.0000E+00  0.0000E+00  0.0000E+00  0.0000E+00  0.0000E+00  0.0000E+00  0.0000E+00
    -39.539  0.0000E+00  0.0000E+00  0.0000E+00  0.0000E+00  0.0000E+00  0.0000E+00  0.0000E+00  0.0000E+00  0.0000E+00  0.0000E+00  0.0000E+00  0.0000E+00  0.0000E+00  0.0000E+00  0.0000E+00  0.0000E+00  0.0000E+00  0.0000E+00
    -39.353  0.0000E+00  0.0000E+00  0.0000E+00  0.0000E+00  0.0000E+00  0.0000E+00  0.0000E+00  0.0000E+00  0.0000E+00  0.0000E+00  0.0000E+00  0.0000E+00  0.0000E+00  0.0000E+00  0.0000E+00  0.0000E+00  0.0000E+00  0.0000E+00
    -39.167  0.0000E+00  0.0000E+00  0.0000E+00  0.0000E+00  0.0000E+00  0.0000E+00  0.0000E+00  0.0000E+00  0.0000E+00  0.0000E+00  0.0000E+00  0.0000E+00  0.0000E+00  0.0000E+00  0.0000E+00  0.0000E+00  0.0000E+00  0.0000E+00
    -38.981  0.0000E+00  0.0000E+00  0.0000E+00  0.0000E+00  0.0000E+00  0.0000E+00  0.0000E+00  0.0000E+00  0.0000E+00  0.0000E+00  0.0000E+00  0.0000E+00  0.0000E+00  0.0000E+00  0.0000E+00  0.0000E+00  0.0000E+00  0.0000E+00
    -38.795  0.0000E+00  0.0000E+00  0.0000E+00  0.0000E+00  0.0000E+00  0.0000E+00  0.0000E+00  0.0000E+00  0.0000E+00  0.0000E+00  0.0000E+00  0.0000E+00  0.0000E+00  0.0000E+00  0.0000E+00  0.0000E+00  0.0000E+00  0.0000E+00
    -38.608  0.0000E+00  0.0000E+00  0.0000E+00  0.0000E+00  0.0000E+00  0.0000E+00  0.0000E+00  0.0000E+00  0.0000E+00  0.0000E+00  0.0000E+00  0.0000E+00  0.0000E+00  0.0000E+00  0.0000E+00  0.0000E+00  0.0000E+00  0.0000E+00
    -38.422  0.0000E+00  0.0000E+00  0.0000E+00  0.0000E+00  0.0000E+00  0.0000E+00  0.0000E+00  0.0000E+00  0.0000E+00  0.0000E+00  0.0000E+00  0.0000E+00  0.0000E+00  0.0000E+00  0.0000E+00  0.0000E+00  0.0000E+00  0.0000E+00
    -38.236  0.0000E+00  0.0000E+00  0.0000E+00  0.0000E+00  0.0000E+00  0.0000E+00  0.0000E+00  0.0000E+00  0.0000E+00  0.0000E+00  0.0000E+00  0.0000E+00  0.0000E+00  0.0000E+00  0.0000E+00  0.0000E+00  0.0000E+00  0.0000E+00
    -38.050  0.0000E+00  0.0000E+00  0.0000E+00  0.0000E+00  0.0000E+00  0.0000E+00  0.0000E+00  0.0000E+00  0.0000E+00  0.0000E+00  0.0000E+00  0.0000E+00  0.0000E+00  0.0000E+00  0.0000E+00  0.0000E+00  0.0000E+00  0.0000E+00
    -37.864  0.0000E+00  0.0000E+00  0.0000E+00  0.0000E+00  0.0000E+00  0.0000E+00  0.0000E+00  0.0000E+00  0.0000E+00  0.0000E+00  0.0000E+00  0.0000E+00  0.0000E+00  0.0000E+00  0.0000E+00  0.0000E+00  0.0000E+00  0.0000E+00
    -37.678  0.0000E+00  0.0000E+00  0.0000E+00  0.0000E+00  0.0000E+00  0.0000E+00  0.0000E+00  0.0000E+00  0.0000E+00  0.0000E+00  0.0000E+00  0.0000E+00  0.0000E+00  0.0000E+00  0.0000E+00  0.0000E+00  0.0000E+00  0.0000E+00
    -37.492  0.0000E+00  0.0000E+00  0.0000E+00  0.0000E+00  0.0000E+00  0.0000E+00  0.0000E+00  0.0000E+00  0.0000E+00  0.0000E+00  0.0000E+00  0.0000E+00  0.0000E+00  0.0000E+00  0.0000E+00  0.0000E+00  0.0000E+00  0.0000E+00
    -37.306  0.0000E+00  0.0000E+00  0.0000E+00  0.0000E+00  0.0000E+00  0.0000E+00  0.0000E+00  0.0000E+00  0.0000E+00  0.0000E+00  0.0000E+00  0.0000E+00  0.0000E+00  0.0000E+00  0.0000E+00  0.0000E+00  0.0000E+00  0.0000E+00
    -37.120  0.0000E+00  0.0000E+00  0.0000E+00  0.0000E+00  0.0000E+00  0.0000E+00  0.0000E+00  0.0000E+00  0.0000E+00  0.0000E+00  0.0000E+00  0.0000E+00  0.0000E+00  0.0000E+00  0.0000E+00  0.0000E+00  0.0000E+00  0.0000E+00
    -36.934  0.0000E+00  0.0000E+00  0.0000E+00  0.0000E+00  0.0000E+00  0.0000E+00  0.0000E+00  0.0000E+00  0.0000E+00  0.0000E+00  0.0000E+00  0.0000E+00  0.0000E+00  0.0000E+00  0.0000E+00  0.0000E+00  0.0000E+00  0.0000E+00
    -36.748  0.0000E+00  0.0000E+00  0.0000E+00  0.0000E+00  0.0000E+00  0.0000E+00  0.0000E+00  0.0000E+00  0.0000E+00  0.0000E+00  0.0000E+00  0.0000E+00  0.0000E+00  0.0000E+00  0.0000E+00  0.0000E+00  0.0000E+00  0.0000E+00
    -36.562  0.0000E+00  0.0000E+00  0.0000E+00  0.0000E+00  0.0000E+00  0.0000E+00  0.0000E+00  0.0000E+00  0.0000E+00  0.0000E+00  0.0000E+00  0.0000E+00  0.0000E+00  0.0000E+00  0.0000E+00  0.0000E+00  0.0000E+00  0.0000E+00
    -36.376  0.0000E+00  0.0000E+00  0.0000E+00  0.0000E+00  0.0000E+00  0.0000E+00  0.0000E+00  0.0000E+00  0.0000E+00  0.0000E+00  0.0000E+00  0.0000E+00  0.0000E+00  0.0000E+00  0.0000E+00  0.0000E+00  0.0000E+00  0.0000E+00
    -36.190  0.0000E+00  0.0000E+00  0.0000E+00  0.0000E+00  0.0000E+00  0.0000E+00  0.0000E+00  0.0000E+00  0.0000E+00  0.0000E+00  0.0000E+00  0.0000E+00  0.0000E+00  0.0000E+00  0.0000E+00  0.0000E+00  0.0000E+00  0.0000E+00
    -36.004  0.0000E+00  0.0000E+00  0.0000E+00  0.0000E+00  0.0000E+00  0.0000E+00  0.0000E+00  0.0000E+00  0.0000E+00  0.0000E+00  0.0000E+00  0.0000E+00  0.0000E+00  0.0000E+00  0.0000E+00  0.0000E+00  0.0000E+00  0.0000E+00
    -35.818  0.0000E+00  0.0000E+00  0.0000E+00  0.0000E+00  0.0000E+00  0.0000E+00  0.0000E+00  0.0000E+00  0.0000E+00  0.0000E+00  0.0000E+00  0.0000E+00  0.0000E+00  0.0000E+00  0.0000E+00  0.0000E+00  0.0000E+00  0.0000E+00
    -35.632  0.0000E+00  0.0000E+00  0.0000E+00  0.0000E+00  0.0000E+00  0.0000E+00  0.0000E+00  0.0000E+00  0.0000E+00  0.0000E+00  0.0000E+00  0.0000E+00  0.0000E+00  0.0000E+00  0.0000E+00  0.0000E+00  0.0000E+00  0.0000E+00
    -35.446  0.0000E+00  0.0000E+00  0.0000E+00  0.0000E+00  0.0000E+00  0.0000E+00  0.0000E+00  0.0000E+00  0.0000E+00  0.0000E+00  0.0000E+00  0.0000E+00  0.0000E+00  0.0000E+00  0.0000E+00  0.0000E+00  0.0000E+00  0.0000E+00
    -35.260  0.0000E+00  0.0000E+00  0.0000E+00  0.0000E+00  0.0000E+00  0.0000E+00  0.0000E+00  0.0000E+00  0.0000E+00  0.0000E+00  0.0000E+00  0.0000E+00  0.0000E+00  0.0000E+00  0.0000E+00  0.0000E+00  0.0000E+00  0.0000E+00
    -35.074  0.0000E+00  0.0000E+00  0.0000E+00  0.0000E+00  0.0000E+00  0.0000E+00  0.0000E+00  0.0000E+00  0.0000E+00  0.0000E+00  0.0000E+00  0.0000E+00  0.0000E+00  0.0000E+00  0.0000E+00  0.0000E+00  0.0000E+00  0.0000E+00
    -34.888  0.0000E+00  0.0000E+00  0.0000E+00  0.0000E+00  0.0000E+00  0.0000E+00  0.0000E+00  0.0000E+00  0.0000E+00  0.0000E+00  0.0000E+00  0.0000E+00  0.0000E+00  0.0000E+00  0.0000E+00  0.0000E+00  0.0000E+00  0.0000E+00
    -34.702  0.0000E+00  0.0000E+00  0.0000E+00  0.0000E+00  0.0000E+00  0.0000E+00  0.0000E+00  0.0000E+00  0.0000E+00  0.0000E+00  0.0000E+00  0.0000E+00  0.0000E+00  0.0000E+00  0.0000E+00  0.0000E+00  0.0000E+00  0.0000E+00
    -34.516  0.0000E+00  0.0000E+00  0.0000E+00  0.0000E+00  0.0000E+00  0.0000E+00  0.0000E+00  0.0000E+00  0.0000E+00  0.0000E+00  0.0000E+00  0.0000E+00  0.0000E+00  0.0000E+00  0.0000E+00  0.0000E+00  0.0000E+00  0.0000E+00
    -34.330  0.0000E+00  0.0000E+00  0.0000E+00  0.0000E+00  0.0000E+00  0.0000E+00  0.0000E+00  0.0000E+00  0.0000E+00  0.0000E+00  0.0000E+00  0.0000E+00  0.0000E+00  0.0000E+00  0.0000E+00  0.0000E+00  0.0000E+00  0.0000E+00
    -34.144  0.0000E+00  0.0000E+00  0.0000E+00  0.0000E+00  0.0000E+00  0.0000E+00  0.0000E+00  0.0000E+00  0.0000E+00  0.0000E+00  0.0000E+00  0.0000E+00  0.0000E+00  0.0000E+00  0.0000E+00  0.0000E+00  0.0000E+00  0.0000E+00
    -33.957  0.0000E+00  0.0000E+00  0.0000E+00  0.0000E+00  0.0000E+00  0.0000E+00  0.0000E+00  0.0000E+00  0.0000E+00  0.0000E+00  0.0000E+00  0.0000E+00  0.0000E+00  0.0000E+00  0.0000E+00  0.0000E+00  0.0000E+00  0.0000E+00
    -33.771  0.0000E+00  0.0000E+00  0.0000E+00  0.0000E+00  0.0000E+00  0.0000E+00  0.0000E+00  0.0000E+00  0.0000E+00  0.0000E+00  0.0000E+00  0.0000E+00  0.0000E+00  0.0000E+00  0.0000E+00  0.0000E+00  0.0000E+00  0.0000E+00
    -33.585  0.0000E+00  0.0000E+00  0.0000E+00  0.0000E+00  0.0000E+00  0.0000E+00  0.0000E+00  0.0000E+00  0.0000E+00  0.0000E+00  0.0000E+00  0.0000E+00  0.0000E+00  0.0000E+00  0.0000E+00  0.0000E+00  0.0000E+00  0.0000E+00
    -33.399  0.0000E+00  0.0000E+00  0.0000E+00  0.0000E+00  0.0000E+00  0.0000E+00  0.0000E+00  0.0000E+00  0.0000E+00  0.0000E+00  0.0000E+00  0.0000E+00  0.0000E+00  0.0000E+00  0.0000E+00  0.0000E+00  0.0000E+00  0.0000E+00