   9   9   1   0
  0.3134823E+02  0.3973387E-09  0.3973388E-09  0.2063494E-08  0.5000000E-15
  1.000000000000000E-004
  CAR 
 unknown system                          
     10.31354162    -45.84727569  301     -0.91715932      1.00000000
    -45.847  0.0000E+00  0.0000E+00  0.0000E+00  0.0000E+00
    -45.660  0.0000E+00  0.0000E+00  0.0000E+00  0.0000E+00
    -45.473  0.0000E+00  0.0000E+00  0.0000E+00  0.0000E+00
    -45.286  0.0000E+00  0.0000E+00  0.0000E+00  0.0000E+00
    -45.098  0.0000E+00  0.0000E+00  0.0000E+00  0.0000E+00
    -44.911  0.0000E+00  0.0000E+00  0.0000E+00  0.0000E+00
    -44.724  0.0000E+00  0.0000E+00  0.0000E+00  0.0000E+00
    -44.537  0.0000E+00  0.0000E+00  0.0000E+00  0.0000E+00
    -44.350  0.0000E+00  0.0000E+00  0.0000E+00  0.0000E+00
    -44.162  0.0000E+00  0.0000E+00  0.0000E+00  0.0000E+00
    -43.975  0.0000E+00  0.0000E+00  0.0000E+00  0.0000E+00
    -43.788  0.2137E-02  0.2134E-02  0.4001E-03  0.3994E-03
    -43.601  0.8803E-01  0.8789E-01  0.1688E-01  0.1685E-01
    -43.414  0.3445E+01  0.3440E+01  0.6617E+00  0.6608E+00
    -43.226  0.3344E+02  0.3343E+02  0.6921E+01  0.6919E+01
    -43.039  0.1076E+02  0.1078E+02  0.8936E+01  0.8936E+01
    -42.852  0.0000E+00  0.0000E+00  0.9000E+01  0.9000E+01
    -42.665  0.0000E+00  0.0000E+00  0.9000E+01  0.9000E+01
    -42.478  0.0000E+00  0.0000E+00  0.9000E+01  0.9000E+01
    -42.290  0.0000E+00  0.0000E+00  0.9000E+01  0.9000E+01
    -42.103  0.0000E+00  0.0000E+00  0.9000E+01  0.9000E+01
    -41.916  0.0000E+00  0.0000E+00  0.9000E+01  0.9000E+01
    -41.729  0.0000E+00  0.0000E+00  0.9000E+01  0.9000E+01
    -41.542  0.0000E+00  0.0000E+00  0.9000E+01  0.9000E+01
    -41.354  0.0000E+00  0.0000E+00  0.9000E+01  0.9000E+01
    -41.167  0.0000E+00  0.0000E+00  0.9000E+01  0.9000E+01
    -40.980  0.0000E+00  0.0000E+00  0.9000E+01  0.9000E+01
    -40.793  0.0000E+00  0.0000E+00  0.9000E+01  0.9000E+01
    -40.606  0.0000E+00  0.0000E+00  0.9000E+01  0.9000E+01
    -40.418  0.0000E+00  0.0000E+00  0.9000E+01  0.9000E+01
    -40.231  0.0000E+00  0.0000E+00  0.9000E+01  0.9000E+01
    -40.044  0.0000E+00  0.0000E+00  0.9000E+01  0.9000E+01
    -39.857  0.0000E+00  0.0000E+00  0.9000E+01  0.9000E+01
    -39.670  0.0000E+00  0.0000E+00  0.9000E+01  0.9000E+01
    -39.482  0.0000E+00  0.0000E+00  0.9000E+01  0.9000E+01
    -39.295  0.0000E+00  0.0000E+00  0.9000E+01  0.9000E+01
    -39.108  0.0000E+00  0.0000E+00  0.9000E+01  0.9000E+01
    -38.921  0.0000E+00  0.0000E+00  0.9000E+01  0.9000E+01
    -38.734  0.0000E+00  0.0000E+00  0.9000E+01  0.9000E+01
    -38.546  0.0000E+00  0.0000E+00  0.9000E+01  0.9000E+01
    -38.359  0.0000E+00  0.0000E+00  0.9000E+01  0.9000E+01
    -38.172  0.0000E+00  0.0000E+00  0.9000E+01  0.9000E+01
    -37.985  0.0000E+00  0.0000E+00  0.9000E+01  0.9000E+01
    -37.798  0.0000E+00  0.0000E+00  0.9000E+01  0.9000E+01
    -37.610  0.0000E+00  0.0000E+00  0.9000E+01  0.9000E+01
    -37.423  0.0000E+00  0.0000E+00  0.9000E+01  0.9000E+01
    -37.236  0.0000E+00  0.0000E+00  0.9000E+01  0.9000E+01
    -37.049  0.0000E+00  0.0000E+00  0.9000E+01  0.9000E+01
    -36.862  0.0000E+00  0.0000E+00  0.9000E+01  0.9000E+01
    -36.674  0.0000E+00  0.0000E+00  0.9000E+01  0.9000E+01
    -36.487  0.0000E+00  0.0000E+00  0.9000E+01  0.9000E+01
    -36.300  0.0000E+00  0.0000E+00  0.9000E+01  0.9000E+01
    -36.113  0.0000E+00  0.0000E+00  0.9000E+01  0.9000E+01
    -35.926  0.0000E+00  0.0000E+00  0.9000E+01  0.9000E+01
    -35.738  0.0000E+00  0.0000E+00  0.9000E+01  0.9000E+01
    -35.551  0.0000E+00  0.0000E+00  0.9000E+01  0.9000E+01
    -35.364  0.0000E+00  0.0000E+00  0.9000E+01  0.9000E+01
    -35.177  0.0000E+00  0.0000E+00  0.9000E+01  0.9000E+01
    -34.990  0.0000E+00  0.0000E+00  0.9000E+01  0.9000E+01
    -34.802  0.0000E+00  0.0000E+00  0.9000E+01  0.9000E+01
    -34.615  0.0000E+00  0.0000E+00  0.9000E+01  0.9000E+01
    -34.428  0.0000E+00  0.0000E+00  0.9000E+01  0.9000E+01
    -34.241  0.0000E+00  0.0000E+00  0.9000E+01  0.9000E+01
    -34.054  0.0000E+00  0.0000E+00  0.9000E+01  0.9000E+01
    -33.866  0.0000E+00  0.0000E+00  0.9000E+01  0.9000E+01
    -33.679  0.0000E+00  0.0000E+00  0.9000E+01  0.9000E+01
    -33.492  0.0000E+00  0.0000E+00  0.9000E+01  0.9000E+01
    -33.305  0.0000E+00  0.0000E+00  0.9000E+01  0.9000E+01
    -33.117  0.0000E+00  0.0000E+00  0.9000E+01  0.9000E+01
    -32.930  0.0000E+00  0.0000E+00  0.9000E+01  0.9000E+01
    -32.743  0.0000E+00  0.0000E+00  0.9000E+01  0.9000E+01
    -32.556  0.0000E+00  0.0000E+00  0.9000E+01  0.9000E+01
    -32.369  0.0000E+00  0.0000E+00  0.9000E+01  0.9000E+01
    -32.181  0.0000E+00  0.0000E+00  0.9000E+01  0.9000E+01
    -31.994  0.0000E+00  0.0000E+00  0.9000E+01  0.9000E+01
    -31.807  0.0000E+00  0.0000E+00  0.9000E+01  0.9000E+01
    -31.620  0.0000E+00  0.0000E+00  0.9000E+01  0.9000E+01
    -31.433  0.0000E+00  0.0000E+00  0.9000E+01  0.9000E+01
    -31.245  0.0000E+00  0.0000E+00  0.9000E+01  0.9000E+01
    -31.058  0.0000E+00  0.0000E+00  0.9000E+01  0.9000E+01
    -30.871  0.0000E+00  0.0000E+00  0.9000E+01  0.9000E+01
    -30.684  0.0000E+00  0.0000E+00  0.9000E+01  0.9000E+01
    -30.497  0.0000E+00  0.0000E+00  0.9000E+01  0.9000E+01
    -30.309  0.0000E+00  0.0000E+00  0.9000E+01  0.9000E+01
    -30.122  0.0000E+00  0.0000E+00  0.9000E+01  0.9000E+01
    -29.935  0.0000E+00  0.0000E+00  0.9000E+01  0.9000E+01
    -29.748  0.0000E+00  0.0000E+00  0.9000E+01  0.9000E+01
    -29.561  0.0000E+00  0.0000E+00  0.9000E+01  0.9000E+01
    -29.373  0.0000E+00  0.0000E+00  0.9000E+01  0.9000E+01
    -29.186  0.0000E+00  0.0000E+00  0.9000E+01  0.9000E+01
    -28.999  0.0000E+00  0.0000E+00  0.9000E+01  0.9000E+01
    -28.812  0.0000E+00  0.0000E+00  0.9000E+01  0.9000E+01
    -28.625  0.0000E+00  0.0000E+00  0.9000E+01  0.9000E+01
    -28.437  0.0000E+00  0.0000E+00  0.9000E+01  0.9000E+01
    -28.250  0.0000E+00  0.0000E+00  0.9000E+01  0.9000E+01
    -28.063  0.0000E+00  0.0000E+00  0.9000E+01  0.9000E+01
    -27.876  0.0000E+00  0.0000E+00  0.9000E+01  0.9000E+01
    -27.689  0.0000E+00  0.0000E+00  0.9000E+01  0.9000E+01
    -27.501  0.0000E+00  0.0000E+00  0.9000E+01  0.9000E+01
    -27.314  0.0000E+00  0.0000E+00  0.9000E+01  0.9000E+01
    -27.127  0.0000E+00  0.0000E+00  0.9000E+01  0.9000E+01
    -26.940  0.0000E+00  0.0000E+00  0.9000E+01  0.9000E+01
    -26.753  0.0000E+00  0.0000E+00  0.9000E+01  0.9000E+01
    -26.565  0.0000E+00  0.0000E+00  0.9000E+01  0.9000E+01
    -26.378  0.0000E+00  0.0000E+00  0.9000E+01  0.9000E+01
    -26.191  0.0000E+00  0.0000E+00  0.9000E+01  0.9000E+01
    -26.004  0.0000E+00  0.0000E+00  0.9000E+01  0.9000E+01
    -25.817  0.0000E+00  0.0000E+00  0.9000E+01  0.9000E+01
    -25.629  0.0000E+00  0.0000E+00  0.9000E+01  0.9000E+01
    -25.442  0.0000E+00  0.0000E+00  0.9000E+01  0.9000E+01
    -25.255  0.0000E+00  0.0000E+00  0.9000E+01  0.9000E+01
    -25.068  0.0000E+00  0.0000E+00  0.9000E+01  0.9000E+01
    -24.881  0.0000E+00  0.0000E+00  0.9000E+01  0.9000E+01
    -24.693  0.0000E+00  0.0000E+00  0.9000E+01  0.9000E+01
    -24.506  0.0000E+00  0.0000E+00  0.9000E+01  0.9000E+01
    -24.319  0.0000E+00  0.0000E+00  0.9000E+01  0.9000E+01
    -24.132  0.0000E+00  0.0000E+00  0.9000E+01  0.9000E+01
    -23.945  0.0000E+00  0.0000E+00  0.9000E+01  0.9000E+01
    -23.757  0.0000E+00  0.0000E+00  0.9000E+01  0.9000E+01
    -23.570  0.0000E+00  0.0000E+00  0.9000E+01  0.9000E+01
    -23.383  0.0000E+00  0.0000E+00  0.9000E+01  0.9000E+01
    -23.196  0.0000E+00  0.0000E+00  0.9000E+01  0.9000E+01
    -23.009  0.0000E+00  0.0000E+00  0.9000E+01  0.9000E+01
    -22.821  0.0000E+00  0.0000E+00  0.9000E+01  0.9000E+01
    -22.634  0.0000E+00  0.0000E+00  0.9000E+01  0.9000E+01
    -22.447  0.0000E+00  0.0000E+00  0.9000E+01  0.9000E+01
    -22.260  0.0000E+00  0.0000E+00  0.9000E+01  0.9000E+01
    -22.073  0.0000E+00  0.0000E+00  0.9000E+01  0.9000E+01
    -21.885  0.0000E+00  0.0000E+00  0.9000E+01  0.9000E+01
    -21.698  0.0000E+00  0.0000E+00  0.9000E+01  0.9000E+01
    -21.511  0.0000E+00  0.0000E+00  0.9000E+01  0.9000E+01
    -21.324  0.0000E+00  0.0000E+00  0.9000E+01  0.9000E+01
    -21.137  0.0000E+00  0.0000E+00  0.9000E+01  0.9000E+01
    -20.949  0.0000E+00  0.0000E+00  0.9000E+01  0.9000E+01
    -20.762  0.0000E+00  0.0000E+00  0.9000E+01  0.9000E+01
    -20.575  0.0000E+00  0.0000E+00  0.9000E+01  0.9000E+01
    -20.388  0.0000E+00  0.0000E+00  0.9000E+01  0.9000E+01
    -20.201  0.0000E+00  0.0000E+00  0.9000E+01  0.9000E+01
    -20.013  0.0000E+00  0.0000E+00  0.9000E+01  0.9000E+01
    -19.826  0.0000E+00  0.0000E+00  0.9000E+01  0.9000E+01
    -19.639  0.0000E+00  0.0000E+00  0.9000E+01  0.9000E+01
    -19.452  0.0000E+00  0.0000E+00  0.9000E+01  0.9000E+01
    -19.264  0.0000E+00  0.0000E+00  0.9000E+01  0.9000E+01
    -19.077  0.0000E+00  0.0000E+00  0.9000E+01  0.9000E+01
    -18.890  0.0000E+00  0.0000E+00  0.9000E+01  0.9000E+01
    -18.703  0.0000E+00  0.0000E+00  0.9000E+01  0.9000E+01
    -18.516  0.0000E+00  0.0000E+00  0.9000E+01  0.9000E+01
    -18.328  0.0000E+00  0.0000E+00  0.9000E+01  0.9000E+01
    -18.141  0.0000E+00  0.0000E+00  0.9000E+01  0.9000E+01
    -17.954  0.0000E+00  0.0000E+00  0.9000E+01  0.9000E+01
    -17.767  0.0000E+00  0.0000E+00  0.9000E+01  0.9000E+01
    -17.580  0.0000E+00  0.0000E+00  0.9000E+01  0.9000E+01
    -17.392  0.0000E+00  0.0000E+00  0.9000E+01  0.9000E+01
    -17.205  0.0000E+00  0.0000E+00  0.9000E+01  0.9000E+01
    -17.018  0.0000E+00  0.0000E+00  0.9000E+01  0.9000E+01
    -16.831  0.0000E+00  0.0000E+00  0.9000E+01  0.9000E+01
    -16.644  0.0000E+00  0.0000E+00  0.9000E+01  0.9000E+01
    -16.456  0.0000E+00  0.0000E+00  0.9000E+01  0.9000E+01
    -16.269  0.0000E+00  0.0000E+00  0.9000E+01  0.9000E+01
    -16.082  0.0000E+00  0.0000E+00  0.9000E+01  0.9000E+01
    -15.895  0.0000E+00  0.0000E+00  0.9000E+01  0.9000E+01
    -15.708  0.0000E+00  0.0000E+00  0.9000E+01  0.9000E+01
    -15.520  0.7364E-04  0.7506E-04  0.9000E+01  0.9000E+01
    -15.333  0.3512E-02  0.3580E-02  0.9001E+01  0.9001E+01
    -15.146  0.1400E+00  0.1426E+00  0.9027E+01  0.9027E+01
    -14.959  0.2163E+01  0.2183E+01  0.9432E+01  0.9436E+01
    -14.772  0.6744E+01  0.6781E+01  0.1069E+02  0.1071E+02
    -14.584  0.1596E+02  0.1600E+02  0.1369E+02  0.1371E+02
    -14.397  0.6731E+01  0.6642E+01  0.1495E+02  0.1495E+02
    -14.210  0.1900E+00  0.1860E+00  0.1500E+02  0.1500E+02
    -14.023  0.0000E+00  0.0000E+00  0.1500E+02  0.1500E+02
    -13.836  0.0000E+00  0.0000E+00  0.1500E+02  0.1500E+02
    -13.648  0.0000E+00  0.0000E+00  0.1500E+02  0.1500E+02
    -13.461  0.0000E+00  0.0000E+00  0.1500E+02  0.1500E+02
    -13.274  0.0000E+00  0.0000E+00  0.1500E+02  0.1500E+02
    -13.087  0.0000E+00  0.0000E+00  0.1500E+02  0.1500E+02
    -12.900  0.0000E+00  0.0000E+00  0.1500E+02  0.1500E+02
    -12.712  0.0000E+00  0.0000E+00  0.1500E+02  0.1500E+02
    -12.525  0.0000E+00  0.0000E+00  0.1500E+02  0.1500E+02
    -12.338  0.0000E+00  0.0000E+00  0.1500E+02  0.1500E+02
    -12.151  0.0000E+00  0.0000E+00  0.1500E+02  0.1500E+02
    -11.964  0.0000E+00  0.0000E+00  0.1500E+02  0.1500E+02
    -11.776  0.0000E+00  0.0000E+00  0.1500E+02  0.1500E+02
    -11.589  0.0000E+00  0.0000E+00  0.1500E+02  0.1500E+02
    -11.402  0.0000E+00  0.0000E+00  0.1500E+02  0.1500E+02
    -11.215  0.0000E+00  0.0000E+00  0.1500E+02  0.1500E+02
    -11.028  0.0000E+00  0.0000E+00  0.1500E+02  0.1500E+02
    -10.840  0.0000E+00  0.0000E+00  0.1500E+02  0.1500E+02
    -10.653  0.0000E+00  0.0000E+00  0.1500E+02  0.1500E+02
    -10.466  0.0000E+00  0.0000E+00  0.1500E+02  0.1500E+02
    -10.279  0.0000E+00  0.0000E+00  0.1500E+02  0.1500E+02
    -10.092  0.0000E+00  0.0000E+00  0.1500E+02  0.1500E+02
     -9.904  0.0000E+00  0.0000E+00  0.1500E+02  0.1500E+02
     -9.717  0.0000E+00  0.0000E+00  0.1500E+02  0.1500E+02
     -9.530  0.0000E+00  0.0000E+00  0.1500E+02  0.1500E+02
     -9.343  0.0000E+00  0.0000E+00  0.1500E+02  0.1500E+02
     -9.156  0.0000E+00  0.0000E+00  0.1500E+02  0.1500E+02
     -8.968  0.0000E+00  0.0000E+00  0.1500E+02  0.1500E+02
     -8.781  0.0000E+00  0.0000E+00  0.1500E+02  0.1500E+02
     -8.594  0.0000E+00  0.0000E+00  0.1500E+02  0.1500E+02
     -8.407  0.0000E+00  0.0000E+00  0.1500E+02  0.1500E+02
     -8.220  0.0000E+00  0.0000E+00  0.1500E+02  0.1500E+02
     -8.032  0.0000E+00  0.0000E+00  0.1500E+02  0.1500E+02
     -7.845  0.0000E+00  0.0000E+00  0.1500E+02  0.1500E+02
     -7.658  0.0000E+00  0.0000E+00  0.1500E+02  0.1500E+02
     -7.471  0.0000E+00  0.0000E+00  0.1500E+02  0.1500E+02
     -7.284  0.0000E+00  0.0000E+00  0.1500E+02  0.1500E+02
     -7.096  0.0000E+00  0.0000E+00  0.1500E+02  0.1500E+02
     -6.909  0.0000E+00  0.0000E+00  0.1500E+02  0.1500E+02
     -6.722  0.0000E+00  0.0000E+00  0.1500E+02  0.1500E+02
     -6.535  0.0000E+00  0.0000E+00  0.1500E+02  0.1500E+02
     -6.348  0.0000E+00  0.0000E+00  0.1500E+02  0.1500E+02
     -6.160  0.0000E+00  0.0000E+00  0.1500E+02  0.1500E+02
     -5.973  0.0000E+00  0.0000E+00  0.1500E+02  0.1500E+02
     -5.786  0.0000E+00  0.0000E+00  0.1500E+02  0.1500E+02
     -5.599  0.0000E+00  0.0000E+00  0.1500E+02  0.1500E+02
     -5.411  0.0000E+00  0.0000E+00  0.1500E+02  0.1500E+02
     -5.224  0.0000E+00  0.0000E+00  0.1500E+02  0.1500E+02
     -5.037  0.7422E-04  0.7394E-04  0.1500E+02  0.1500E+02
     -4.850  0.3233E-02  0.3221E-02  0.1500E+02  0.1500E+02
     -4.663  0.1315E+00  0.1310E+00  0.1503E+02  0.1503E+02
     -4.475  0.2332E+01  0.2327E+01  0.1546E+02  0.1546E+02
     -4.288  0.6079E+01  0.6074E+01  0.1660E+02  0.1660E+02
     -4.101  0.6623E+01  0.6626E+01  0.1784E+02  0.1784E+02
     -3.914  0.5361E+01  0.5369E+01  0.1885E+02  0.1885E+02
     -3.727  0.5803E+01  0.5804E+01  0.1994E+02  0.1994E+02
     -3.539  0.3319E+01  0.3318E+01  0.2057E+02  0.2057E+02
     -3.352  0.3583E+01  0.3591E+01  0.2124E+02  0.2124E+02
     -3.165  0.6419E+01  0.6421E+01  0.2244E+02  0.2245E+02
     -2.978  0.8796E+01  0.8810E+01  0.2409E+02  0.2410E+02
     -2.791  0.9303E+01  0.9299E+01  0.2584E+02  0.2584E+02
     -2.603  0.1252E+02  0.1255E+02  0.2819E+02  0.2820E+02
     -2.416  0.1525E+02  0.1526E+02  0.3105E+02  0.3106E+02
     -2.229  0.9083E+01  0.9043E+01  0.3277E+02  0.3277E+02
     -2.042  0.1150E+01  0.1138E+01  0.3299E+02  0.3299E+02
     -1.855  0.2903E-01  0.1974E-01  0.3300E+02  0.3300E+02
     -1.667  0.0000E+00  0.0000E+00  0.3300E+02  0.3300E+02
     -1.480  0.0000E+00  0.0000E+00  0.3300E+02  0.3300E+02
     -1.293  0.0000E+00  0.0000E+00  0.3300E+02  0.3300E+02
     -1.106  0.0000E+00  0.0000E+00  0.3300E+02  0.3300E+02
     -0.919  0.0000E+00  0.0000E+00  0.3300E+02  0.3300E+02
     -0.731  0.0000E+00  0.0000E+00  0.3300E+02  0.3300E+02
     -0.544  0.0000E+00  0.0000E+00  0.3300E+02  0.3300E+02
     -0.357  0.0000E+00  0.0000E+00  0.3300E+02  0.3300E+02
     -0.170  0.0000E+00  0.0000E+00  0.3300E+02  0.3300E+02
      0.017  0.0000E+00  0.0000E+00  0.3300E+02  0.3300E+02
      0.205  0.0000E+00  0.0000E+00  0.3300E+02  0.3300E+02
      0.392  0.0000E+00  0.0000E+00  0.3300E+02  0.3300E+02
      0.579  0.0000E+00  0.0000E+00  0.3300E+02  0.3300E+02
      0.766  0.0000E+00  0.0000E+00  0.3300E+02  0.3300E+02
      0.953  0.0000E+00  0.0000E+00  0.3300E+02  0.3300E+02
      1.141  0.0000E+00  0.0000E+00  0.3300E+02  0.3300E+02
      1.328  0.0000E+00  0.0000E+00  0.3300E+02  0.3300E+02
      1.515  0.0000E+00  0.0000E+00  0.3300E+02  0.3300E+02
      1.702  0.2228E-05  0.2204E-05  0.3300E+02  0.3300E+02
      1.889  0.9186E-04  0.9090E-04  0.3300E+02  0.3300E+02
      2.077  0.3749E-02  0.3711E-02  0.3300E+02  0.3300E+02
      2.264  0.6247E-01  0.6223E-01  0.3301E+02  0.3301E+02
      2.451  0.4761E-01  0.4778E-01  0.3302E+02  0.3302E+02
      2.638  0.1614E+00  0.1602E+00  0.3305E+02  0.3305E+02
      2.825  0.5815E+00  0.5815E+00  0.3316E+02  0.3316E+02
      3.013  0.4802E+00  0.4777E+00  0.3325E+02  0.3325E+02
      3.200  0.8783E+00  0.8809E+00  0.3342E+02  0.3342E+02
      3.387  0.2964E+00  0.2945E+00  0.3347E+02  0.3347E+02
      3.574  0.1927E+01  0.1909E+01  0.3383E+02  0.3383E+02
      3.761  0.3675E+01  0.3675E+01  0.3452E+02  0.3452E+02
      3.949  0.4359E+01  0.4350E+01  0.3534E+02  0.3533E+02
      4.136  0.2522E+01  0.2537E+01  0.3581E+02  0.3581E+02
      4.323  0.9843E+00  0.1031E+01  0.3601E+02  0.3601E+02
      4.510  0.2368E+00  0.2381E+00  0.3605E+02  0.3605E+02
      4.697  0.1217E+00  0.1216E+00  0.3607E+02  0.3607E+02
      4.885  0.9378E+00  0.9298E+00  0.3625E+02  0.3625E+02
      5.072  0.1833E+01  0.1830E+01  0.3659E+02  0.3659E+02
      5.259  0.1482E+01  0.1469E+01  0.3687E+02  0.3687E+02
      5.446  0.2660E+01  0.2641E+01  0.3737E+02  0.3736E+02
      5.633  0.3381E+01  0.3375E+01  0.3801E+02  0.3800E+02
      5.821  0.2298E+01  0.2277E+01  0.3844E+02  0.3843E+02
      6.008  0.1607E+01  0.1663E+01  0.3874E+02  0.3874E+02
      6.195  0.1828E+01  0.1724E+01  0.3909E+02  0.3906E+02
      6.382  0.4682E+01  0.4383E+01  0.3996E+02  0.3989E+02
      6.569  0.4997E+01  0.5148E+01  0.4090E+02  0.4085E+02
      6.757  0.4267E+01  0.4406E+01  0.4170E+02  0.4168E+02
      6.944  0.2984E+01  0.3082E+01  0.4226E+02  0.4226E+02
      7.131  0.2622E+01  0.2816E+01  0.4276E+02  0.4279E+02
      7.318  0.2244E+01  0.1799E+01  0.4318E+02  0.4313E+02
      7.506  0.2095E+01  0.2239E+01  0.4358E+02  0.4355E+02
      7.693  0.1296E+01  0.1945E+01  0.4382E+02  0.4392E+02
      7.880  0.8802E+00  0.4209E+00  0.4399E+02  0.4400E+02
      8.067  0.6446E-01  0.1159E-01  0.4400E+02  0.4400E+02
      8.254  0.0000E+00  0.0000E+00  0.4400E+02  0.4400E+02
      8.442  0.0000E+00  0.0000E+00  0.4400E+02  0.4400E+02
      8.629  0.0000E+00  0.0000E+00  0.4400E+02  0.4400E+02
      8.816  0.0000E+00  0.0000E+00  0.4400E+02  0.4400E+02
      9.003  0.0000E+00  0.0000E+00  0.4400E+02  0.4400E+02
      9.190  0.0000E+00  0.0000E+00  0.4400E+02  0.4400E+02
      9.378  0.0000E+00  0.0000E+00  0.4400E+02  0.4400E+02
      9.565  0.0000E+00  0.0000E+00  0.4400E+02  0.4400E+02
      9.752  0.0000E+00  0.0000E+00  0.4400E+02  0.4400E+02
      9.939  0.0000E+00  0.0000E+00  0.4400E+02  0.4400E+02
     10.126  0.0000E+00  0.0000E+00  0.4400E+02  0.4400E+02
     10.314  0.0000E+00  0.0000E+00  0.4400E+02  0.4400E+02
     10.31354162    -45.84727569  301     -0.91715932      1.00000000
    -45.847  0.0000E+00  0.0000E+00  0.0000E+00  0.0000E+00  0.0000E+00  0.0000E+00  0.0000E+00  0.0000E+00  0.0000E+00  0.0000E+00  0.0000E+00  0.0000E+00  0.0000E+00  0.0000E+00  0.0000E+00  0.0000E+00  0.0000E+00  0.0000E+00
    -45.660  0.0000E+00  0.0000E+00  0.0000E+00  0.0000E+00  0.0000E+00  0.0000E+00  0.0000E+00  0.0000E+00  0.0000E+00  0.0000E+00  0.0000E+00  0.0000E+00  0.0000E+00  0.0000E+00  0.0000E+00  0.0000E+00  0.0000E+00  0.0000E+00
    -45.473  0.0000E+00  0.0000E+00  0.0000E+00  0.0000E+00  0.0000E+00  0.0000E+00  0.0000E+00  0.0000E+00  0.0000E+00  0.0000E+00  0.0000E+00  0.0000E+00  0.0000E+00  0.0000E+00  0.0000E+00  0.0000E+00  0.0000E+00  0.0000E+00
    -45.286  0.0000E+00  0.0000E+00  0.0000E+00  0.0000E+00  0.0000E+00  0.0000E+00  0.0000E+00  0.0000E+00  0.0000E+00  0.0000E+00  0.0000E+00  0.0000E+00  0.0000E+00  0.0000E+00  0.0000E+00  0.0000E+00  0.0000E+00  0.0000E+00
    -45.098  0.0000E+00  0.0000E+00  0.0000E+00  0.0000E+00  0.0000E+00  0.0000E+00  0.0000E+00  0.0000E+00  0.0000E+00  0.0000E+00  0.0000E+00  0.0000E+00  0.0000E+00  0.0000E+00  0.0000E+00  0.0000E+00  0.0000E+00  0.0000E+00
    -44.911  0.0000E+00  0.0000E+00  0.0000E+00  0.0000E+00  0.0000E+00  0.0000E+00  0.0000E+00  0.0000E+00  0.0000E+00  0.0000E+00  0.0000E+00  0.0000E+00  0.0000E+00  0.0000E+00  0.0000E+00  0.0000E+00  0.0000E+00  0.0000E+00
    -44.724  0.0000E+00  0.0000E+00  0.0000E+00  0.0000E+00  0.0000E+00  0.0000E+00  0.0000E+00  0.0000E+00  0.0000E+00  0.0000E+00  0.0000E+00  0.0000E+00  0.0000E+00  0.0000E+00  0.0000E+00  0.0000E+00  0.0000E+00  0.0000E+00
    -44.537  0.0000E+00  0.0000E+00  0.0000E+00  0.0000E+00  0.0000E+00  0.0000E+00  0.0000E+00  0.0000E+00  0.0000E+00  0.0000E+00  0.0000E+00  0.0000E+00  0.0000E+00  0.0000E+00  0.0000E+00  0.0000E+00  0.0000E+00  0.0000E+00
    -44.350  0.0000E+00  0.0000E+00  0.0000E+00  0.0000E+00  0.0000E+00  0.0000E+00  0.0000E+00  0.0000E+00  0.0000E+00  0.0000E+00  0.0000E+00  0.0000E+00  0.0000E+00  0.0000E+00  0.0000E+00  0.0000E+00  0.0000E+00  0.0000E+00
    -44.162  0.0000E+00  0.0000E+00  0.0000E+00  0.0000E+00  0.0000E+00  0.0000E+00  0.0000E+00  0.0000E+00  0.0000E+00  0.0000E+00  0.0000E+00  0.0000E+00  0.0000E+00  0.0000E+00  0.0000E+00  0.0000E+00  0.0000E+00  0.0000E+00
    -43.975  0.0000E+00  0.0000E+00  0.0000E+00  0.0000E+00  0.0000E+00  0.0000E+00  0.0000E+00  0.0000E+00  0.0000E+00  0.0000E+00  0.0000E+00  0.0000E+00  0.0000E+00  0.0000E+00  0.0000E+00  0.0000E+00  0.0000E+00  0.0000E+00
    -43.788  0.3220E-12  0.3226E-12  0.2185E-03  0.2182E-03  0.2712E-03  0.2708E-03  0.2185E-03  0.2182E-03  0.4754E-13  0.4797E-13  0.3213E-14  0.3235E-14  0.2940E-13  0.2967E-13  0.3213E-14  0.3235E-14  0.4754E-13  0.4797E-13
    -43.601  0.1327E-10  0.1329E-10  0.9002E-02  0.8988E-02  0.1117E-01  0.1115E-01  0.9002E-02  0.8988E-02  0.1958E-11  0.1976E-11  0.1323E-12  0.1332E-12  0.1211E-11  0.1222E-11  0.1323E-12  0.1332E-12  0.1958E-11  0.1976E-11
    -43.414  0.5222E-09  0.5232E-09  0.3545E+00  0.3539E+00  0.4326E+00  0.4320E+00  0.3545E+00  0.3539E+00  0.7710E-10  0.7781E-10  0.5167E-11  0.5203E-11  0.4763E-10  0.4808E-10  0.5167E-11  0.5203E-11  0.7710E-10  0.7781E-10
    -43.226  0.5367E-08  0.5384E-08  0.3654E+01  0.3653E+01  0.3773E+01  0.3772E+01  0.3654E+01  0.3653E+01  0.7931E-09  0.8015E-09  0.4908E-10  0.4941E-10  0.4846E-09  0.4898E-09  0.4908E-10  0.4941E-10  0.7931E-09  0.8015E-09
    -43.039  0.1834E-08  0.1842E-08  0.1253E+01  0.1254E+01  0.1061E+01  0.1063E+01  0.1253E+01  0.1254E+01  0.2714E-09  0.2746E-09  0.1541E-10  0.1551E-10  0.1638E-09  0.1658E-09  0.1541E-10  0.1551E-10  0.2714E-09  0.2746E-09
    -42.852  0.0000E+00  0.0000E+00  0.0000E+00  0.0000E+00  0.0000E+00  0.0000E+00  0.0000E+00  0.0000E+00  0.0000E+00  0.0000E+00  0.0000E+00  0.0000E+00  0.0000E+00  0.0000E+00  0.0000E+00  0.0000E+00  0.0000E+00  0.0000E+00
    -42.665  0.0000E+00  0.0000E+00  0.0000E+00  0.0000E+00  0.0000E+00  0.0000E+00  0.0000E+00  0.0000E+00  0.0000E+00  0.0000E+00  0.0000E+00  0.0000E+00  0.0000E+00  0.0000E+00  0.0000E+00  0.0000E+00  0.0000E+00  0.0000E+00
    -42.478  0.0000E+00  0.0000E+00  0.0000E+00  0.0000E+00  0.0000E+00  0.0000E+00  0.0000E+00  0.0000E+00  0.0000E+00  0.0000E+00  0.0000E+00  0.0000E+00  0.0000E+00  0.0000E+00  0.0000E+00  0.0000E+00  0.0000E+00  0.0000E+00
    -42.290  0.0000E+00  0.0000E+00  0.0000E+00  0.0000E+00  0.0000E+00  0.0000E+00  0.0000E+00  0.0000E+00  0.0000E+00  0.0000E+00  0.0000E+00  0.0000E+00  0.0000E+00  0.0000E+00  0.0000E+00  0.0000E+00  0.0000E+00  0.0000E+00
    -42.103  0.0000E+00  0.0000E+00  0.0000E+00  0.0000E+00  0.0000E+00  0.0000E+00  0.0000E+00  0.0000E+00  0.0000E+00  0.0000E+00  0.0000E+00  0.0000E+00  0.0000E+00  0.0000E+00  0.0000E+00  0.0000E+00  0.0000E+00  0.0000E+00
    -41.916  0.0000E+00  0.0000E+00  0.0000E+00  0.0000E+00  0.0000E+00  0.0000E+00  0.0000E+00  0.0000E+00  0.0000E+00  0.0000E+00  0.0000E+00  0.0000E+00  0.0000E+00  0.0000E+00  0.0000E+00  0.0000E+00  0.0000E+00  0.0000E+00
    -41.729  0.0000E+00  0.0000E+00  0.0000E+00  0.0000E+00  0.0000E+00  0.0000E+00  0.0000E+00  0.0000E+00  0.0000E+00  0.0000E+00  0.0000E+00  0.0000E+00  0.0000E+00  0.0000E+00  0.0000E+00  0.0000E+00  0.0000E+00  0.0000E+00
    -41.542  0.0000E+00  0.0000E+00  0.0000E+00  0.0000E+00  0.0000E+00  0.0000E+00  0.0000E+00  0.0000E+00  0.0000E+00  0.0000E+00  0.0000E+00  0.0000E+00  0.0000E+00  0.0000E+00  0.0000E+00  0.0000E+00  0.0000E+00  0.0000E+00
    -41.354  0.0000E+00  0.0000E+00  0.0000E+00  0.0000E+00  0.0000E+00  0.0000E+00  0.0000E+00  0.0000E+00  0.0000E+00  0.0000E+00  0.0000E+00  0.0000E+00  0.0000E+00  0.0000E+00  0.0000E+00  0.0000E+00  0.0000E+00  0.0000E+00
    -41.167  0.0000E+00  0.0000E+00  0.0000E+00  0.0000E+00  0.0000E+00  0.0000E+00  0.0000E+00  0.0000E+00  0.0000E+00  0.0000E+00  0.0000E+00  0.0000E+00  0.0000E+00  0.0000E+00  0.0000E+00  0.0000E+00  0.0000E+00  0.0000E+00
    -40.980  0.0000E+00  0.0000E+00  0.0000E+00  0.0000E+00  0.0000E+00  0.0000E+00  0.0000E+00  0.0000E+00  0.0000E+00  0.0000E+00  0.0000E+00  0.0000E+00  0.0000E+00  0.0000E+00  0.0000E+00  0.0000E+00  0.0000E+00  0.0000E+00
    -40.793  0.0000E+00  0.0000E+00  0.0000E+00  0.0000E+00  0.0000E+00  0.0000E+00  0.0000E+00  0.0000E+00  0.0000E+00  0.0000E+00  0.0000E+00  0.0000E+00  0.0000E+00  0.0000E+00  0.0000E+00  0.0000E+00  0.0000E+00  0.0000E+00
    -40.606  0.0000E+00  0.0000E+00  0.0000E+00  0.0000E+00  0.0000E+00  0.0000E+00  0.0000E+00  0.0000E+00  0.0000E+00  0.0000E+00  0.0000E+00  0.0000E+00  0.0000E+00  0.0000E+00  0.0000E+00  0.0000E+00  0.0000E+00  0.0000E+00
    -40.418  0.0000E+00  0.0000E+00  0.0000E+00  0.0000E+00  0.0000E+00  0.0000E+00  0.0000E+00  0.0000E+00  0.0000E+00  0.0000E+00  0.0000E+00  0.0000E+00  0.0000E+00  0.0000E+00  0.0000E+00  0.0000E+00  0.0000E+00  0.0000E+00
    -40.231  0.0000E+00  0.0000E+00  0.0000E+00  0.0000E+00  0.0000E+00  0.0000E+00  0.0000E+00  0.0000E+00  0.0000E+00  0.0000E+00  0.0000E+00  0.0000E+00  0.0000E+00  0.0000E+00  0.0000E+00  0.0000E+00  0.0000E+00  0.0000E+00
    -40.044  0.0000E+00  0.0000E+00  0.0000E+00  0.0000E+00  0.0000E+00  0.0000E+00  0.0000E+00  0.0000E+00  0.0000E+00  0.0000E+00  0.0000E+00  0.0000E+00  0.0000E+00  0.0000E+00  0.0000E+00  0.0000E+00  0.0000E+00  0.0000E+00
    -39.857  0.0000E+00  0.0000E+00  0.0000E+00  0.0000E+00  0.0000E+00  0.0000E+00  0.0000E+00  0.0000E+00  0.0000E+00  0.0000E+00  0.0000E+00  0.0000E+00  0.0000E+00  0.0000E+00  0.0000E+00  0.0000E+00  0.0000E+00  0.0000E+00
    -39.670  0.0000E+00  0.0000E+00  0.0000E+00  0.0000E+00  0.0000E+00  0.0000E+00  0.0000E+00  0.0000E+00  0.0000E+00  0.0000E+00  0.0000E+00  0.0000E+00  0.0000E+00  0.0000E+00  0.0000E+00  0.0000E+00  0.0000E+00  0.0000E+00
    -39.482  0.0000E+00  0.0000E+00  0.0000E+00  0.0000E+00  0.0000E+00  0.0000E+00  0.0000E+00  0.0000E+00  0.0000E+00  0.0000E+00  0.0000E+00  0.0000E+00  0.0000E+00  0.0000E+00  0.0000E+00  0.0000E+00  0.0000E+00  0.0000E+00
    -39.295  0.0000E+00  0.0000E+00  0.0000E+00  0.0000E+00  0.0000E+00  0.0000E+00  0.0000E+00  0.0000E+00  0.0000E+00  0.0000E+00  0.0000E+00  0.0000E+00  0.0000E+00  0.0000E+00  0.0000E+00  0.0000E+00  0.0000E+00  0.0000E+00
    -39.108  0.0000E+00  0.0000E+00  0.0000E+00  0.0000E+00  0.0000E+00  0.0000E+00  0.0000E+00  0.0000E+00  0.0000E+00  0.0000E+00  0.0000E+00  0.0000E+00  0.0000E+00  0.0000E+00  0.0000E+00  0.0000E+00  0.0000E+00  0.0000E+00
    -38.921  0.0000E+00  0.0000E+00  0.0000E+00  0.0000E+00  0.0000E+00  0.0000E+00  0.0000E+00  0.0000E+00  0.0000E+00  0.0000E+00  0.0000E+00  0.0000E+00  0.0000E+00  0.0000E+00  0.0000E+00  0.0000E+00  0.0000E+00  0.0000E+00
    -38.734  0.0000E+00  0.0000E+00  0.0000E+00  0.0000E+00  0.0000E+00  0.0000E+00  0.0000E+00  0.0000E+00  0.0000E+00  0.0000E+00  0.0000E+00  0.0000E+00  0.0000E+00  0.0000E+00  0.0000E+00  0.0000E+00  0.0000E+00  0.0000E+00
    -38.546  0.0000E+00  0.0000E+00  0.0000E+00  0.0000E+00  0.0000E+00  0.0000E+00  0.0000E+00  0.0000E+00  0.0000E+00  0.0000E+00  0.0000E+00  0.0000E+00  0.0000E+00  0.0000E+00  0.0000E+00  0.0000E+00  0.0000E+00  0.0000E+00
    -38.359  0.0000E+00  0.0000E+00  0.0000E+00  0.0000E+00  0.0000E+00  0.0000E+00  0.0000E+00  0.0000E+00  0.0000E+00  0.0000E+00  0.0000E+00  0.0000E+00  0.0000E+00  0.0000E+00  0.0000E+00  0.0000E+00  0.0000E+00  0.0000E+00
    -38.172  0.0000E+00  0.0000E+00  0.0000E+00  0.0000E+00  0.0000E+00  0.0000E+00  0.0000E+00  0.0000E+00  0.0000E+00  0.0000E+00  0.0000E+00  0.0000E+00  0.0000E+00  0.0000E+00  0.0000E+00  0.0000E+00  0.0000E+00  0.0000E+00
    -37.985  0.0000E+00  0.0000E+00  0.0000E+00  0.0000E+00  0.0000E+00  0.0000E+00  0.0000E+00  0.0000E+00  0.0000E+00  0.0000E+00  0.0000E+00  0.0000E+00  0.0000E+00  0.0000E+00  0.0000E+00  0.0000E+00  0.0000E+00  0.0000E+00
    -37.798  0.0000E+00  0.0000E+00  0.0000E+00  0.0000E+00  0.0000E+00  0.0000E+00  0.0000E+00  0.0000E+00  0.0000E+00  0.0000E+00  0.0000E+00  0.0000E+00  0.0000E+00  0.0000E+00  0.0000E+00  0.0000E+00  0.0000E+00  0.0000E+00
    -37.610  0.0000E+00  0.0000E+00  0.0000E+00  0.0000E+00  0.0000E+00  0.0000E+00  0.0000E+00  0.0000E+00  0.0000E+00  0.0000E+00  0.0000E+00  0.0000E+00  0.0000E+00  0.0000E+00  0.0000E+00  0.0000E+00  0.0000E+00  0.0000E+00
    -37.423  0.0000E+00  0.0000E+00  0.0000E+00  0.0000E+00  0.0000E+00  0.0000E+00  0.0000E+00  0.0000E+00  0.0000E+00  0.0000E+00  0.0000E+00  0.0000E+00  0.0000E+00  0.0000E+00  0.0000E+00  0.0000E+00  0.0000E+00  0.0000E+00
    -37.236  0.0000E+00  0.0000E+00  0.0000E+00  0.0000E+00  0.0000E+00  0.0000E+00  0.0000E+00  0.0000E+00  0.0000E+00  0.0000E+00  0.0000E+00  0.0000E+00  0.0000E+00  0.0000E+00  0.0000E+00  0.0000E+00  0.0000E+00  0.0000E+00
    -37.049  0.0000E+00  0.0000E+00  0.0000E+00  0.0000E+00  0.0000E+00  0.0000E+00  0.0000E+00  0.0000E+00  0.0000E+00  0.0000E+00  0.0000E+00  0.0000E+00  0.0000E+00  0.0000E+00  0.0000E+00  0.0000E+00  0.0000E+00  0.0000E+00
    -36.862  0.0000E+00  0.0000E+00  0.0000E+00  0.0000E+00  0.0000E+00  0.0000E+00  0.0000E+00  0.0000E+00  0.0000E+00  0.0000E+00  0.0000E+00  0.0000E+00  0.0000E+00  0.0000E+00  0.0000E+00  0.0000E+00  0.0000E+00  0.0000E+00
    -36.674  0.0000E+00  0.0000E+00  0.0000E+00  0.0000E+00  0.0000E+00  0.0000E+00  0.0000E+00  0.0000E+00  0.0000E+00  0.0000E+00  0.0000E+00  0.0000E+00  0.0000E+00  0.0000E+00  0.0000E+00  0.0000E+00  0.0000E+00  0.0000E+00
    -36.487  0.0000E+00  0.0000E+00  0.0000E+00  0.0000E+00  0.0000E+00  0.0000E+00  0.0000E+00  0.0000E+00  0.0000E+00  0.0000E+00  0.0000E+00  0.0000E+00  0.0000E+00  0.0000E+00  0.0000E+00  0.0000E+00  0.0000E+00  0.0000E+00