   9   9   1   0
  0.2640841E+02  0.3752644E-09  0.3752644E-09  0.1948855E-08  0.5000000E-15
  1.000000000000000E-004
  CAR 
 unknown system                          
     11.89930781    -44.22911187  301     -0.07329338      1.00000000
    -44.229  0.0000E+00  0.0000E+00  0.0000E+00  0.0000E+00
    -44.042  0.0000E+00  0.0000E+00  0.0000E+00  0.0000E+00
    -43.855  0.0000E+00  0.0000E+00  0.0000E+00  0.0000E+00
    -43.668  0.0000E+00  0.0000E+00  0.0000E+00  0.0000E+00
    -43.481  0.0000E+00  0.0000E+00  0.0000E+00  0.0000E+00
    -43.294  0.0000E+00  0.0000E+00  0.0000E+00  0.0000E+00
    -43.107  0.0000E+00  0.0000E+00  0.0000E+00  0.0000E+00
    -42.919  0.0000E+00  0.0000E+00  0.0000E+00  0.0000E+00
    -42.732  0.0000E+00  0.0000E+00  0.0000E+00  0.0000E+00
    -42.545  0.0000E+00  0.0000E+00  0.0000E+00  0.0000E+00
    -42.358  0.0000E+00  0.0000E+00  0.0000E+00  0.0000E+00
    -42.171  0.2226E-02  0.2225E-02  0.4164E-03  0.4162E-03
    -41.984  0.9146E-01  0.9143E-01  0.1753E-01  0.1752E-01
    -41.797  0.3563E+01  0.3562E+01  0.6842E+00  0.6839E+00
    -41.610  0.3365E+02  0.3365E+02  0.6980E+01  0.6980E+01
    -41.423  0.1047E+02  0.1047E+02  0.8939E+01  0.8939E+01
    -41.236  0.0000E+00  0.0000E+00  0.9000E+01  0.9000E+01
    -41.049  0.0000E+00  0.0000E+00  0.9000E+01  0.9000E+01
    -40.861  0.0000E+00  0.0000E+00  0.9000E+01  0.9000E+01
    -40.674  0.0000E+00  0.0000E+00  0.9000E+01  0.9000E+01
    -40.487  0.0000E+00  0.0000E+00  0.9000E+01  0.9000E+01
    -40.300  0.0000E+00  0.0000E+00  0.9000E+01  0.9000E+01
    -40.113  0.0000E+00  0.0000E+00  0.9000E+01  0.9000E+01
    -39.926  0.0000E+00  0.0000E+00  0.9000E+01  0.9000E+01
    -39.739  0.0000E+00  0.0000E+00  0.9000E+01  0.9000E+01
    -39.552  0.0000E+00  0.0000E+00  0.9000E+01  0.9000E+01
    -39.365  0.0000E+00  0.0000E+00  0.9000E+01  0.9000E+01
    -39.178  0.0000E+00  0.0000E+00  0.9000E+01  0.9000E+01
    -38.990  0.0000E+00  0.0000E+00  0.9000E+01  0.9000E+01
    -38.803  0.0000E+00  0.0000E+00  0.9000E+01  0.9000E+01
    -38.616  0.0000E+00  0.0000E+00  0.9000E+01  0.9000E+01
    -38.429  0.0000E+00  0.0000E+00  0.9000E+01  0.9000E+01
    -38.242  0.0000E+00  0.0000E+00  0.9000E+01  0.9000E+01
    -38.055  0.0000E+00  0.0000E+00  0.9000E+01  0.9000E+01
    -37.868  0.0000E+00  0.0000E+00  0.9000E+01  0.9000E+01
    -37.681  0.0000E+00  0.0000E+00  0.9000E+01  0.9000E+01
    -37.494  0.0000E+00  0.0000E+00  0.9000E+01  0.9000E+01
    -37.307  0.0000E+00  0.0000E+00  0.9000E+01  0.9000E+01
    -37.120  0.0000E+00  0.0000E+00  0.9000E+01  0.9000E+01
    -36.932  0.0000E+00  0.0000E+00  0.9000E+01  0.9000E+01
    -36.745  0.0000E+00  0.0000E+00  0.9000E+01  0.9000E+01
    -36.558  0.0000E+00  0.0000E+00  0.9000E+01  0.9000E+01
    -36.371  0.0000E+00  0.0000E+00  0.9000E+01  0.9000E+01
    -36.184  0.0000E+00  0.0000E+00  0.9000E+01  0.9000E+01
    -35.997  0.0000E+00  0.0000E+00  0.9000E+01  0.9000E+01
    -35.810  0.0000E+00  0.0000E+00  0.9000E+01  0.9000E+01
    -35.623  0.0000E+00  0.0000E+00  0.9000E+01  0.9000E+01
    -35.436  0.0000E+00  0.0000E+00  0.9000E+01  0.9000E+01
    -35.249  0.0000E+00  0.0000E+00  0.9000E+01  0.9000E+01
    -35.061  0.0000E+00  0.0000E+00  0.9000E+01  0.9000E+01
    -34.874  0.0000E+00  0.0000E+00  0.9000E+01  0.9000E+01
    -34.687  0.0000E+00  0.0000E+00  0.9000E+01  0.9000E+01
    -34.500  0.0000E+00  0.0000E+00  0.9000E+01  0.9000E+01
    -34.313  0.0000E+00  0.0000E+00  0.9000E+01  0.9000E+01
    -34.126  0.0000E+00  0.0000E+00  0.9000E+01  0.9000E+01
    -33.939  0.0000E+00  0.0000E+00  0.9000E+01  0.9000E+01
    -33.752  0.0000E+00  0.0000E+00  0.9000E+01  0.9000E+01
    -33.565  0.0000E+00  0.0000E+00  0.9000E+01  0.9000E+01
    -33.378  0.0000E+00  0.0000E+00  0.9000E+01  0.9000E+01
    -33.191  0.0000E+00  0.0000E+00  0.9000E+01  0.9000E+01
    -33.003  0.0000E+00  0.0000E+00  0.9000E+01  0.9000E+01
    -32.816  0.0000E+00  0.0000E+00  0.9000E+01  0.9000E+01
    -32.629  0.0000E+00  0.0000E+00  0.9000E+01  0.9000E+01
    -32.442  0.0000E+00  0.0000E+00  0.9000E+01  0.9000E+01
    -32.255  0.0000E+00  0.0000E+00  0.9000E+01  0.9000E+01
    -32.068  0.0000E+00  0.0000E+00  0.9000E+01  0.9000E+01
    -31.881  0.0000E+00  0.0000E+00  0.9000E+01  0.9000E+01
    -31.694  0.0000E+00  0.0000E+00  0.9000E+01  0.9000E+01
    -31.507  0.0000E+00  0.0000E+00  0.9000E+01  0.9000E+01
    -31.320  0.0000E+00  0.0000E+00  0.9000E+01  0.9000E+01
    -31.132  0.0000E+00  0.0000E+00  0.9000E+01  0.9000E+01
    -30.945  0.0000E+00  0.0000E+00  0.9000E+01  0.9000E+01
    -30.758  0.0000E+00  0.0000E+00  0.9000E+01  0.9000E+01
    -30.571  0.0000E+00  0.0000E+00  0.9000E+01  0.9000E+01
    -30.384  0.0000E+00  0.0000E+00  0.9000E+01  0.9000E+01
    -30.197  0.0000E+00  0.0000E+00  0.9000E+01  0.9000E+01
    -30.010  0.0000E+00  0.0000E+00  0.9000E+01  0.9000E+01
    -29.823  0.0000E+00  0.0000E+00  0.9000E+01  0.9000E+01
    -29.636  0.0000E+00  0.0000E+00  0.9000E+01  0.9000E+01
    -29.449  0.0000E+00  0.0000E+00  0.9000E+01  0.9000E+01
    -29.262  0.0000E+00  0.0000E+00  0.9000E+01  0.9000E+01
    -29.074  0.0000E+00  0.0000E+00  0.9000E+01  0.9000E+01
    -28.887  0.0000E+00  0.0000E+00  0.9000E+01  0.9000E+01
    -28.700  0.0000E+00  0.0000E+00  0.9000E+01  0.9000E+01
    -28.513  0.0000E+00  0.0000E+00  0.9000E+01  0.9000E+01
    -28.326  0.0000E+00  0.0000E+00  0.9000E+01  0.9000E+01
    -28.139  0.0000E+00  0.0000E+00  0.9000E+01  0.9000E+01
    -27.952  0.0000E+00  0.0000E+00  0.9000E+01  0.9000E+01
    -27.765  0.0000E+00  0.0000E+00  0.9000E+01  0.9000E+01
    -27.578  0.0000E+00  0.0000E+00  0.9000E+01  0.9000E+01
    -27.391  0.0000E+00  0.0000E+00  0.9000E+01  0.9000E+01
    -27.203  0.0000E+00  0.0000E+00  0.9000E+01  0.9000E+01
    -27.016  0.0000E+00  0.0000E+00  0.9000E+01  0.9000E+01
    -26.829  0.0000E+00  0.0000E+00  0.9000E+01  0.9000E+01
    -26.642  0.0000E+00  0.0000E+00  0.9000E+01  0.9000E+01
    -26.455  0.0000E+00  0.0000E+00  0.9000E+01  0.9000E+01
    -26.268  0.0000E+00  0.0000E+00  0.9000E+01  0.9000E+01
    -26.081  0.0000E+00  0.0000E+00  0.9000E+01  0.9000E+01
    -25.894  0.0000E+00  0.0000E+00  0.9000E+01  0.9000E+01
    -25.707  0.0000E+00  0.0000E+00  0.9000E+01  0.9000E+01
    -25.520  0.0000E+00  0.0000E+00  0.9000E+01  0.9000E+01
    -25.333  0.0000E+00  0.0000E+00  0.9000E+01  0.9000E+01
    -25.145  0.0000E+00  0.0000E+00  0.9000E+01  0.9000E+01
    -24.958  0.0000E+00  0.0000E+00  0.9000E+01  0.9000E+01
    -24.771  0.0000E+00  0.0000E+00  0.9000E+01  0.9000E+01
    -24.584  0.0000E+00  0.0000E+00  0.9000E+01  0.9000E+01
    -24.397  0.0000E+00  0.0000E+00  0.9000E+01  0.9000E+01
    -24.210  0.0000E+00  0.0000E+00  0.9000E+01  0.9000E+01
    -24.023  0.0000E+00  0.0000E+00  0.9000E+01  0.9000E+01
    -23.836  0.0000E+00  0.0000E+00  0.9000E+01  0.9000E+01
    -23.649  0.0000E+00  0.0000E+00  0.9000E+01  0.9000E+01
    -23.462  0.0000E+00  0.0000E+00  0.9000E+01  0.9000E+01
    -23.275  0.0000E+00  0.0000E+00  0.9000E+01  0.9000E+01
    -23.087  0.0000E+00  0.0000E+00  0.9000E+01  0.9000E+01
    -22.900  0.0000E+00  0.0000E+00  0.9000E+01  0.9000E+01
    -22.713  0.0000E+00  0.0000E+00  0.9000E+01  0.9000E+01
    -22.526  0.0000E+00  0.0000E+00  0.9000E+01  0.9000E+01
    -22.339  0.0000E+00  0.0000E+00  0.9000E+01  0.9000E+01
    -22.152  0.0000E+00  0.0000E+00  0.9000E+01  0.9000E+01
    -21.965  0.0000E+00  0.0000E+00  0.9000E+01  0.9000E+01
    -21.778  0.0000E+00  0.0000E+00  0.9000E+01  0.9000E+01
    -21.591  0.0000E+00  0.0000E+00  0.9000E+01  0.9000E+01
    -21.404  0.0000E+00  0.0000E+00  0.9000E+01  0.9000E+01
    -21.216  0.0000E+00  0.0000E+00  0.9000E+01  0.9000E+01
    -21.029  0.0000E+00  0.0000E+00  0.9000E+01  0.9000E+01
    -20.842  0.0000E+00  0.0000E+00  0.9000E+01  0.9000E+01
    -20.655  0.0000E+00  0.0000E+00  0.9000E+01  0.9000E+01
    -20.468  0.0000E+00  0.0000E+00  0.9000E+01  0.9000E+01
    -20.281  0.0000E+00  0.0000E+00  0.9000E+01  0.9000E+01
    -20.094  0.0000E+00  0.0000E+00  0.9000E+01  0.9000E+01
    -19.907  0.0000E+00  0.0000E+00  0.9000E+01  0.9000E+01
    -19.720  0.0000E+00  0.0000E+00  0.9000E+01  0.9000E+01
    -19.533  0.0000E+00  0.0000E+00  0.9000E+01  0.9000E+01
    -19.346  0.0000E+00  0.0000E+00  0.9000E+01  0.9000E+01
    -19.158  0.0000E+00  0.0000E+00  0.9000E+01  0.9000E+01
    -18.971  0.0000E+00  0.0000E+00  0.9000E+01  0.9000E+01
    -18.784  0.0000E+00  0.0000E+00  0.9000E+01  0.9000E+01
    -18.597  0.0000E+00  0.0000E+00  0.9000E+01  0.9000E+01
    -18.410  0.0000E+00  0.0000E+00  0.9000E+01  0.9000E+01
    -18.223  0.0000E+00  0.0000E+00  0.9000E+01  0.9000E+01
    -18.036  0.0000E+00  0.0000E+00  0.9000E+01  0.9000E+01
    -17.849  0.0000E+00  0.0000E+00  0.9000E+01  0.9000E+01
    -17.662  0.0000E+00  0.0000E+00  0.9000E+01  0.9000E+01
    -17.475  0.0000E+00  0.0000E+00  0.9000E+01  0.9000E+01
    -17.287  0.0000E+00  0.0000E+00  0.9000E+01  0.9000E+01
    -17.100  0.0000E+00  0.0000E+00  0.9000E+01  0.9000E+01
    -16.913  0.0000E+00  0.0000E+00  0.9000E+01  0.9000E+01
    -16.726  0.0000E+00  0.0000E+00  0.9000E+01  0.9000E+01
    -16.539  0.0000E+00  0.0000E+00  0.9000E+01  0.9000E+01
    -16.352  0.0000E+00  0.0000E+00  0.9000E+01  0.9000E+01
    -16.165  0.0000E+00  0.0000E+00  0.9000E+01  0.9000E+01
    -15.978  0.0000E+00  0.0000E+00  0.9000E+01  0.9000E+01
    -15.791  0.0000E+00  0.0000E+00  0.9000E+01  0.9000E+01
    -15.604  0.0000E+00  0.0000E+00  0.9000E+01  0.9000E+01
    -15.417  0.0000E+00  0.0000E+00  0.9000E+01  0.9000E+01
    -15.229  0.0000E+00  0.0000E+00  0.9000E+01  0.9000E+01
    -15.042  0.4019E-04  0.4062E-04  0.9000E+01  0.9000E+01
    -14.855  0.1696E-02  0.1719E-02  0.9000E+01  0.9000E+01
    -14.668  0.6790E-01  0.6859E-01  0.9013E+01  0.9013E+01
    -14.481  0.1147E+01  0.1153E+01  0.9228E+01  0.9229E+01
    -14.294  0.2938E+01  0.2943E+01  0.9777E+01  0.9780E+01
    -14.107  0.4542E+01  0.4551E+01  0.1063E+02  0.1063E+02
    -13.920  0.1017E+02  0.1020E+02  0.1253E+02  0.1254E+02
    -13.733  0.1190E+02  0.1186E+02  0.1476E+02  0.1476E+02
    -13.546  0.1216E+01  0.1194E+01  0.1499E+02  0.1499E+02
    -13.358  0.0000E+00  0.0000E+00  0.1500E+02  0.1500E+02
    -13.171  0.0000E+00  0.0000E+00  0.1500E+02  0.1500E+02
    -12.984  0.0000E+00  0.0000E+00  0.1500E+02  0.1500E+02
    -12.797  0.0000E+00  0.0000E+00  0.1500E+02  0.1500E+02
    -12.610  0.0000E+00  0.0000E+00  0.1500E+02  0.1500E+02
    -12.423  0.0000E+00  0.0000E+00  0.1500E+02  0.1500E+02
    -12.236  0.0000E+00  0.0000E+00  0.1500E+02  0.1500E+02
    -12.049  0.0000E+00  0.0000E+00  0.1500E+02  0.1500E+02
    -11.862  0.0000E+00  0.0000E+00  0.1500E+02  0.1500E+02
    -11.675  0.0000E+00  0.0000E+00  0.1500E+02  0.1500E+02
    -11.488  0.0000E+00  0.0000E+00  0.1500E+02  0.1500E+02
    -11.300  0.0000E+00  0.0000E+00  0.1500E+02  0.1500E+02
    -11.113  0.0000E+00  0.0000E+00  0.1500E+02  0.1500E+02
    -10.926  0.0000E+00  0.0000E+00  0.1500E+02  0.1500E+02
    -10.739  0.0000E+00  0.0000E+00  0.1500E+02  0.1500E+02
    -10.552  0.0000E+00  0.0000E+00  0.1500E+02  0.1500E+02
    -10.365  0.0000E+00  0.0000E+00  0.1500E+02  0.1500E+02
    -10.178  0.0000E+00  0.0000E+00  0.1500E+02  0.1500E+02
     -9.991  0.0000E+00  0.0000E+00  0.1500E+02  0.1500E+02
     -9.804  0.0000E+00  0.0000E+00  0.1500E+02  0.1500E+02
     -9.617  0.0000E+00  0.0000E+00  0.1500E+02  0.1500E+02
     -9.429  0.0000E+00  0.0000E+00  0.1500E+02  0.1500E+02
     -9.242  0.0000E+00  0.0000E+00  0.1500E+02  0.1500E+02
     -9.055  0.0000E+00  0.0000E+00  0.1500E+02  0.1500E+02
     -8.868  0.0000E+00  0.0000E+00  0.1500E+02  0.1500E+02
     -8.681  0.0000E+00  0.0000E+00  0.1500E+02  0.1500E+02
     -8.494  0.0000E+00  0.0000E+00  0.1500E+02  0.1500E+02
     -8.307  0.0000E+00  0.0000E+00  0.1500E+02  0.1500E+02
     -8.120  0.0000E+00  0.0000E+00  0.1500E+02  0.1500E+02
     -7.933  0.0000E+00  0.0000E+00  0.1500E+02  0.1500E+02
     -7.746  0.0000E+00  0.0000E+00  0.1500E+02  0.1500E+02
     -7.559  0.0000E+00  0.0000E+00  0.1500E+02  0.1500E+02
     -7.371  0.0000E+00  0.0000E+00  0.1500E+02  0.1500E+02
     -7.184  0.0000E+00  0.0000E+00  0.1500E+02  0.1500E+02
     -6.997  0.0000E+00  0.0000E+00  0.1500E+02  0.1500E+02
     -6.810  0.0000E+00  0.0000E+00  0.1500E+02  0.1500E+02
     -6.623  0.0000E+00  0.0000E+00  0.1500E+02  0.1500E+02
     -6.436  0.0000E+00  0.0000E+00  0.1500E+02  0.1500E+02
     -6.249  0.0000E+00  0.0000E+00  0.1500E+02  0.1500E+02
     -6.062  0.0000E+00  0.0000E+00  0.1500E+02  0.1500E+02
     -5.875  0.0000E+00  0.0000E+00  0.1500E+02  0.1500E+02
     -5.688  0.0000E+00  0.0000E+00  0.1500E+02  0.1500E+02
     -5.501  0.0000E+00  0.0000E+00  0.1500E+02  0.1500E+02
     -5.313  0.0000E+00  0.0000E+00  0.1500E+02  0.1500E+02
     -5.126  0.0000E+00  0.0000E+00  0.1500E+02  0.1500E+02
     -4.939  0.0000E+00  0.0000E+00  0.1500E+02  0.1500E+02
     -4.752  0.0000E+00  0.0000E+00  0.1500E+02  0.1500E+02
     -4.565  0.2236E-03  0.2234E-03  0.1500E+02  0.1500E+02
     -4.378  0.9287E-02  0.9280E-02  0.1500E+02  0.1500E+02
     -4.191  0.3417E+00  0.3414E+00  0.1507E+02  0.1507E+02
     -4.004  0.2796E+01  0.2795E+01  0.1559E+02  0.1559E+02
     -3.817  0.4302E+01  0.4302E+01  0.1639E+02  0.1639E+02
     -3.630  0.5544E+01  0.5545E+01  0.1743E+02  0.1743E+02
     -3.442  0.7123E+01  0.7125E+01  0.1877E+02  0.1877E+02
     -3.255  0.5354E+01  0.5354E+01  0.1978E+02  0.1978E+02
     -3.068  0.3376E+01  0.3376E+01  0.2041E+02  0.2041E+02
     -2.881  0.1474E+01  0.1475E+01  0.2069E+02  0.2069E+02
     -2.694  0.3425E+01  0.3429E+01  0.2134E+02  0.2134E+02
     -2.507  0.5197E+01  0.5196E+01  0.2231E+02  0.2231E+02
     -2.320  0.5860E+01  0.5867E+01  0.2341E+02  0.2341E+02
     -2.133  0.8654E+01  0.8653E+01  0.2503E+02  0.2503E+02
     -1.946  0.5797E+01  0.5799E+01  0.2612E+02  0.2612E+02
     -1.759  0.1126E+02  0.1126E+02  0.2823E+02  0.2823E+02
     -1.572  0.1189E+02  0.1189E+02  0.3045E+02  0.3046E+02
     -1.384  0.1032E+02  0.1031E+02  0.3239E+02  0.3240E+02
     -1.197  0.2910E+01  0.2899E+01  0.3294E+02  0.3294E+02
     -1.010  0.2535E+00  0.2517E+00  0.3300E+02  0.3300E+02
     -0.823  0.0000E+00  0.0000E+00  0.3300E+02  0.3300E+02
     -0.636  0.0000E+00  0.0000E+00  0.3300E+02  0.3300E+02
     -0.449  0.0000E+00  0.0000E+00  0.3300E+02  0.3300E+02
     -0.262  0.0000E+00  0.0000E+00  0.3300E+02  0.3300E+02
     -0.075  0.0000E+00  0.0000E+00  0.3300E+02  0.3300E+02
      0.112  0.0000E+00  0.0000E+00  0.3300E+02  0.3300E+02
      0.299  0.0000E+00  0.0000E+00  0.3300E+02  0.3300E+02
      0.487  0.0000E+00  0.0000E+00  0.3300E+02  0.3300E+02
      0.674  0.0000E+00  0.0000E+00  0.3300E+02  0.3300E+02
      0.861  0.0000E+00  0.0000E+00  0.3300E+02  0.3300E+02
      1.048  0.0000E+00  0.0000E+00  0.3300E+02  0.3300E+02
      1.235  0.0000E+00  0.0000E+00  0.3300E+02  0.3300E+02
      1.422  0.0000E+00  0.0000E+00  0.3300E+02  0.3300E+02
      1.609  0.0000E+00  0.0000E+00  0.3300E+02  0.3300E+02
      1.796  0.0000E+00  0.0000E+00  0.3300E+02  0.3300E+02
      1.983  0.0000E+00  0.0000E+00  0.3300E+02  0.3300E+02
      2.170  0.0000E+00  0.0000E+00  0.3300E+02  0.3300E+02
      2.357  0.0000E+00  0.0000E+00  0.3300E+02  0.3300E+02
      2.545  0.0000E+00  0.0000E+00  0.3300E+02  0.3300E+02
      2.732  0.0000E+00  0.0000E+00  0.3300E+02  0.3300E+02
      2.919  0.0000E+00  0.0000E+00  0.3300E+02  0.3300E+02
      3.106  0.0000E+00  0.0000E+00  0.3300E+02  0.3300E+02
      3.293  0.0000E+00  0.0000E+00  0.3300E+02  0.3300E+02
      3.480  0.3133E-05  0.3207E-05  0.3300E+02  0.3300E+02
      3.667  0.1289E-03  0.1319E-03  0.3300E+02  0.3300E+02
      3.854  0.5171E-02  0.5287E-02  0.3300E+02  0.3300E+02
      4.041  0.6921E-01  0.6964E-01  0.3301E+02  0.3301E+02
      4.228  0.3382E-01  0.3330E-01  0.3302E+02  0.3302E+02
      4.416  0.1746E-01  0.1764E-01  0.3302E+02  0.3302E+02
      4.603  0.3272E+00  0.3300E+00  0.3308E+02  0.3309E+02
      4.790  0.4928E+00  0.4905E+00  0.3318E+02  0.3318E+02
      4.977  0.1421E+00  0.1419E+00  0.3320E+02  0.3320E+02
      5.164  0.9947E+00  0.9959E+00  0.3339E+02  0.3339E+02
      5.351  0.8874E+00  0.8863E+00  0.3356E+02  0.3356E+02
      5.538  0.1898E+01  0.1896E+01  0.3391E+02  0.3391E+02
      5.725  0.3409E+01  0.3406E+01  0.3455E+02  0.3455E+02
      5.912  0.4112E+01  0.4109E+01  0.3532E+02  0.3532E+02
      6.099  0.2397E+01  0.2399E+01  0.3577E+02  0.3577E+02
      6.286  0.2124E+01  0.2125E+01  0.3617E+02  0.3617E+02
      6.474  0.2391E+01  0.2390E+01  0.3662E+02  0.3662E+02
      6.661  0.1376E+01  0.1374E+01  0.3688E+02  0.3688E+02
      6.848  0.1971E+01  0.1960E+01  0.3725E+02  0.3725E+02
      7.035  0.2301E+01  0.2253E+01  0.3768E+02  0.3767E+02
      7.222  0.3184E+01  0.3194E+01  0.3828E+02  0.3827E+02
      7.409  0.2396E+01  0.2410E+01  0.3873E+02  0.3872E+02
      7.596  0.3235E+01  0.3163E+01  0.3933E+02  0.3931E+02
      7.783  0.6122E+01  0.6044E+01  0.4048E+02  0.4045E+02
      7.970  0.4274E+01  0.4339E+01  0.4128E+02  0.4126E+02
      8.157  0.2660E+01  0.2704E+01  0.4178E+02  0.4177E+02
      8.345  0.1930E+01  0.2414E+01  0.4215E+02  0.4222E+02
      8.532  0.2332E+01  0.2267E+01  0.4259E+02  0.4265E+02
      8.719  0.2911E+01  0.1739E+01  0.4313E+02  0.4297E+02
      8.906  0.2710E+01  0.3058E+01  0.4364E+02  0.4355E+02
      9.093  0.1105E+01  0.1576E+01  0.4385E+02  0.4384E+02
      9.280  0.2568E+00  0.7786E+00  0.4390E+02  0.4399E+02
      9.467  0.4655E+00  0.5589E-01  0.4399E+02  0.4400E+02
      9.654  0.5395E-01  0.0000E+00  0.4400E+02  0.4400E+02
      9.841  0.0000E+00  0.0000E+00  0.4400E+02  0.4400E+02
     10.028  0.0000E+00  0.0000E+00  0.4400E+02  0.4400E+02
     10.215  0.0000E+00  0.0000E+00  0.4400E+02  0.4400E+02
     10.403  0.0000E+00  0.0000E+00  0.4400E+02  0.4400E+02
     10.590  0.0000E+00  0.0000E+00  0.4400E+02  0.4400E+02
     10.777  0.0000E+00  0.0000E+00  0.4400E+02  0.4400E+02
     10.964  0.0000E+00  0.0000E+00  0.4400E+02  0.4400E+02
     11.151  0.0000E+00  0.0000E+00  0.4400E+02  0.4400E+02
     11.338  0.0000E+00  0.0000E+00  0.4400E+02  0.4400E+02
     11.525  0.0000E+00  0.0000E+00  0.4400E+02  0.4400E+02
     11.712  0.0000E+00  0.0000E+00  0.4400E+02  0.4400E+02
     11.899  0.0000E+00  0.0000E+00  0.4400E+02  0.4400E+02
     11.89930781    -44.22911187  301     -0.07329338      1.00000000
    -44.229  0.0000E+00  0.0000E+00  0.0000E+00  0.0000E+00  0.0000E+00  0.0000E+00  0.0000E+00  0.0000E+00  0.0000E+00  0.0000E+00  0.0000E+00  0.0000E+00  0.0000E+00  0.0000E+00  0.0000E+00  0.0000E+00  0.0000E+00  0.0000E+00
    -44.042  0.0000E+00  0.0000E+00  0.0000E+00  0.0000E+00  0.0000E+00  0.0000E+00  0.0000E+00  0.0000E+00  0.0000E+00  0.0000E+00  0.0000E+00  0.0000E+00  0.0000E+00  0.0000E+00  0.0000E+00  0.0000E+00  0.0000E+00  0.0000E+00
    -43.855  0.0000E+00  0.0000E+00  0.0000E+00  0.0000E+00  0.0000E+00  0.0000E+00  0.0000E+00  0.0000E+00  0.0000E+00  0.0000E+00  0.0000E+00  0.0000E+00  0.0000E+00  0.0000E+00  0.0000E+00  0.0000E+00  0.0000E+00  0.0000E+00
    -43.668  0.0000E+00  0.0000E+00  0.0000E+00  0.0000E+00  0.0000E+00  0.0000E+00  0.0000E+00  0.0000E+00  0.0000E+00  0.0000E+00  0.0000E+00  0.0000E+00  0.0000E+00  0.0000E+00  0.0000E+00  0.0000E+00  0.0000E+00  0.0000E+00
    -43.481  0.0000E+00  0.0000E+00  0.0000E+00  0.0000E+00  0.0000E+00  0.0000E+00  0.0000E+00  0.0000E+00  0.0000E+00  0.0000E+00  0.0000E+00  0.0000E+00  0.0000E+00  0.0000E+00  0.0000E+00  0.0000E+00  0.0000E+00  0.0000E+00
    -43.294  0.0000E+00  0.0000E+00  0.0000E+00  0.0000E+00  0.0000E+00  0.0000E+00  0.0000E+00  0.0000E+00  0.0000E+00  0.0000E+00  0.0000E+00  0.0000E+00  0.0000E+00  0.0000E+00  0.0000E+00  0.0000E+00  0.0000E+00  0.0000E+00
    -43.107  0.0000E+00  0.0000E+00  0.0000E+00  0.0000E+00  0.0000E+00  0.0000E+00  0.0000E+00  0.0000E+00  0.0000E+00  0.0000E+00  0.0000E+00  0.0000E+00  0.0000E+00  0.0000E+00  0.0000E+00  0.0000E+00  0.0000E+00  0.0000E+00
    -42.919  0.0000E+00  0.0000E+00  0.0000E+00  0.0000E+00  0.0000E+00  0.0000E+00  0.0000E+00  0.0000E+00  0.0000E+00  0.0000E+00  0.0000E+00  0.0000E+00  0.0000E+00  0.0000E+00  0.0000E+00  0.0000E+00  0.0000E+00  0.0000E+00
    -42.732  0.0000E+00  0.0000E+00  0.0000E+00  0.0000E+00  0.0000E+00  0.0000E+00  0.0000E+00  0.0000E+00  0.0000E+00  0.0000E+00  0.0000E+00  0.0000E+00  0.0000E+00  0.0000E+00  0.0000E+00  0.0000E+00  0.0000E+00  0.0000E+00
    -42.545  0.0000E+00  0.0000E+00  0.0000E+00  0.0000E+00  0.0000E+00  0.0000E+00  0.0000E+00  0.0000E+00  0.0000E+00  0.0000E+00  0.0000E+00  0.0000E+00  0.0000E+00  0.0000E+00  0.0000E+00  0.0000E+00  0.0000E+00  0.0000E+00
    -42.358  0.0000E+00  0.0000E+00  0.0000E+00  0.0000E+00  0.0000E+00  0.0000E+00  0.0000E+00  0.0000E+00  0.0000E+00  0.0000E+00  0.0000E+00  0.0000E+00  0.0000E+00  0.0000E+00  0.0000E+00  0.0000E+00  0.0000E+00  0.0000E+00
    -42.171  0.1816E-11  0.1816E-11  0.2330E-03  0.2329E-03  0.2714E-03  0.2714E-03  0.2330E-03  0.2329E-03  0.3439E-12  0.3458E-12  0.2377E-13  0.2390E-13  0.2085E-12  0.2097E-12  0.2377E-13  0.2390E-13  0.3439E-12  0.3458E-12
    -41.984  0.7463E-10  0.7463E-10  0.9577E-02  0.9571E-02  0.1115E-01  0.1115E-01  0.9577E-02  0.9571E-02  0.1414E-10  0.1421E-10  0.9769E-12  0.9821E-12  0.8570E-11  0.8619E-11  0.9769E-12  0.9821E-12  0.1414E-10  0.1421E-10
    -41.797  0.2918E-08  0.2918E-08  0.3747E+00  0.3745E+00  0.4311E+00  0.4312E+00  0.3747E+00  0.3745E+00  0.5531E-09  0.5562E-09  0.3786E-10  0.3806E-10  0.3351E-09  0.3370E-09  0.3786E-10  0.3806E-10  0.5531E-09  0.5562E-09
    -41.610  0.2854E-07  0.2856E-07  0.3689E+01  0.3689E+01  0.3771E+01  0.3771E+01  0.3689E+01  0.3689E+01  0.5444E-08  0.5477E-08  0.3391E-09  0.3407E-09  0.3280E-08  0.3300E-08  0.3391E-09  0.3407E-09  0.5444E-08  0.5477E-08
    -41.423  0.9212E-08  0.9223E-08  0.1200E+01  0.1201E+01  0.1067E+01  0.1067E+01  0.1200E+01  0.1201E+01  0.1771E-08  0.1782E-08  0.9895E-10  0.9937E-10  0.1059E-08  0.1066E-08  0.9895E-10  0.9937E-10  0.1771E-08  0.1782E-08
    -41.236  0.0000E+00  0.0000E+00  0.0000E+00  0.0000E+00  0.0000E+00  0.0000E+00  0.0000E+00  0.0000E+00  0.0000E+00  0.0000E+00  0.0000E+00  0.0000E+00  0.0000E+00  0.0000E+00  0.0000E+00  0.0000E+00  0.0000E+00  0.0000E+00
    -41.049  0.0000E+00  0.0000E+00  0.0000E+00  0.0000E+00  0.0000E+00  0.0000E+00  0.0000E+00  0.0000E+00  0.0000E+00  0.0000E+00  0.0000E+00  0.0000E+00  0.0000E+00  0.0000E+00  0.0000E+00  0.0000E+00  0.0000E+00  0.0000E+00
    -40.861  0.0000E+00  0.0000E+00  0.0000E+00  0.0000E+00  0.0000E+00  0.0000E+00  0.0000E+00  0.0000E+00  0.0000E+00  0.0000E+00  0.0000E+00  0.0000E+00  0.0000E+00  0.0000E+00  0.0000E+00  0.0000E+00  0.0000E+00  0.0000E+00
    -40.674  0.0000E+00  0.0000E+00  0.0000E+00  0.0000E+00  0.0000E+00  0.0000E+00  0.0000E+00  0.0000E+00  0.0000E+00  0.0000E+00  0.0000E+00  0.0000E+00  0.0000E+00  0.0000E+00  0.0000E+00  0.0000E+00  0.0000E+00  0.0000E+00
    -40.487  0.0000E+00  0.0000E+00  0.0000E+00  0.0000E+00  0.0000E+00  0.0000E+00  0.0000E+00  0.0000E+00  0.0000E+00  0.0000E+00  0.0000E+00  0.0000E+00  0.0000E+00  0.0000E+00  0.0000E+00  0.0000E+00  0.0000E+00  0.0000E+00
    -40.300  0.0000E+00  0.0000E+00  0.0000E+00  0.0000E+00  0.0000E+00  0.0000E+00  0.0000E+00  0.0000E+00  0.0000E+00  0.0000E+00  0.0000E+00  0.0000E+00  0.0000E+00  0.0000E+00  0.0000E+00  0.0000E+00  0.0000E+00  0.0000E+00
    -40.113  0.0000E+00  0.0000E+00  0.0000E+00  0.0000E+00  0.0000E+00  0.0000E+00  0.0000E+00  0.0000E+00  0.0000E+00  0.0000E+00  0.0000E+00  0.0000E+00  0.0000E+00  0.0000E+00  0.0000E+00  0.0000E+00  0.0000E+00  0.0000E+00
    -39.926  0.0000E+00  0.0000E+00  0.0000E+00  0.0000E+00  0.0000E+00  0.0000E+00  0.0000E+00  0.0000E+00  0.0000E+00  0.0000E+00  0.0000E+00  0.0000E+00  0.0000E+00  0.0000E+00  0.0000E+00  0.0000E+00  0.0000E+00  0.0000E+00
    -39.739  0.0000E+00  0.0000E+00  0.0000E+00  0.0000E+00  0.0000E+00  0.0000E+00  0.0000E+00  0.0000E+00  0.0000E+00  0.0000E+00  0.0000E+00  0.0000E+00  0.0000E+00  0.0000E+00  0.0000E+00  0.0000E+00  0.0000E+00  0.0000E+00
    -39.552  0.0000E+00  0.0000E+00  0.0000E+00  0.0000E+00  0.0000E+00  0.0000E+00  0.0000E+00  0.0000E+00  0.0000E+00  0.0000E+00  0.0000E+00  0.0000E+00  0.0000E+00  0.0000E+00  0.0000E+00  0.0000E+00  0.0000E+00  0.0000E+00
    -39.365  0.0000E+00  0.0000E+00  0.0000E+00  0.0000E+00  0.0000E+00  0.0000E+00  0.0000E+00  0.0000E+00  0.0000E+00  0.0000E+00  0.0000E+00  0.0000E+00  0.0000E+00  0.0000E+00  0.0000E+00  0.0000E+00  0.0000E+00  0.0000E+00
    -39.178  0.0000E+00  0.0000E+00  0.0000E+00  0.0000E+00  0.0000E+00  0.0000E+00  0.0000E+00  0.0000E+00  0.0000E+00  0.0000E+00  0.0000E+00  0.0000E+00  0.0000E+00  0.0000E+00  0.0000E+00  0.0000E+00  0.0000E+00  0.0000E+00
    -38.990  0.0000E+00  0.0000E+00  0.0000E+00  0.0000E+00  0.0000E+00  0.0000E+00  0.0000E+00  0.0000E+00  0.0000E+00  0.0000E+00  0.0000E+00  0.0000E+00  0.0000E+00  0.0000E+00  0.0000E+00  0.0000E+00  0.0000E+00  0.0000E+00
    -38.803  0.0000E+00  0.0000E+00  0.0000E+00  0.0000E+00  0.0000E+00  0.0000E+00  0.0000E+00  0.0000E+00  0.0000E+00  0.0000E+00  0.0000E+00  0.0000E+00  0.0000E+00  0.0000E+00  0.0000E+00  0.0000E+00  0.0000E+00  0.0000E+00
    -38.616  0.0000E+00  0.0000E+00  0.0000E+00  0.0000E+00  0.0000E+00  0.0000E+00  0.0000E+00  0.0000E+00  0.0000E+00  0.0000E+00  0.0000E+00  0.0000E+00  0.0000E+00  0.0000E+00  0.0000E+00  0.0000E+00  0.0000E+00  0.0000E+00
    -38.429  0.0000E+00  0.0000E+00  0.0000E+00  0.0000E+00  0.0000E+00  0.0000E+00  0.0000E+00  0.0000E+00  0.0000E+00  0.0000E+00  0.0000E+00  0.0000E+00  0.0000E+00  0.0000E+00  0.0000E+00  0.0000E+00  0.0000E+00  0.0000E+00
    -38.242  0.0000E+00  0.0000E+00  0.0000E+00  0.0000E+00  0.0000E+00  0.0000E+00  0.0000E+00  0.0000E+00  0.0000E+00  0.0000E+00  0.0000E+00  0.0000E+00  0.0000E+00  0.0000E+00  0.0000E+00  0.0000E+00  0.0000E+00  0.0000E+00
    -38.055  0.0000E+00  0.0000E+00  0.0000E+00  0.0000E+00  0.0000E+00  0.0000E+00  0.0000E+00  0.0000E+00  0.0000E+00  0.0000E+00  0.0000E+00  0.0000E+00  0.0000E+00  0.0000E+00  0.0000E+00  0.0000E+00  0.0000E+00  0.0000E+00
    -37.868  0.0000E+00  0.0000E+00  0.0000E+00  0.0000E+00  0.0000E+00  0.0000E+00  0.0000E+00  0.0000E+00  0.0000E+00  0.0000E+00  0.0000E+00  0.0000E+00  0.0000E+00  0.0000E+00  0.0000E+00  0.0000E+00  0.0000E+00  0.0000E+00
    -37.681  0.0000E+00  0.0000E+00  0.0000E+00  0.0000E+00  0.0000E+00  0.0000E+00  0.0000E+00  0.0000E+00  0.0000E+00  0.0000E+00  0.0000E+00  0.0000E+00  0.0000E+00  0.0000E+00  0.0000E+00  0.0000E+00  0.0000E+00  0.0000E+00
    -37.494  0.0000E+00  0.0000E+00  0.0000E+00  0.0000E+00  0.0000E+00  0.0000E+00  0.0000E+00  0.0000E+00  0.0000E+00  0.0000E+00  0.0000E+00  0.0000E+00  0.0000E+00  0.0000E+00  0.0000E+00  0.0000E+00  0.0000E+00  0.0000E+00
    -37.307  0.0000E+00  0.0000E+00  0.0000E+00  0.0000E+00  0.0000E+00  0.0000E+00  0.0000E+00  0.0000E+00  0.0000E+00  0.0000E+00  0.0000E+00  0.0000E+00  0.0000E+00  0.0000E+00  0.0000E+00  0.0000E+00  0.0000E+00  0.0000E+00
    -37.120  0.0000E+00  0.0000E+00  0.0000E+00  0.0000E+00  0.0000E+00  0.0000E+00  0.0000E+00  0.0000E+00  0.0000E+00  0.0000E+00  0.0000E+00  0.0000E+00  0.0000E+00  0.0000E+00  0.0000E+00  0.0000E+00  0.0000E+00  0.0000E+00
    -36.932  0.0000E+00  0.0000E+00  0.0000E+00  0.0000E+00  0.0000E+00  0.0000E+00  0.0000E+00  0.0000E+00  0.0000E+00  0.0000E+00  0.0000E+00  0.0000E+00  0.0000E+00  0.0000E+00  0.0000E+00  0.0000E+00  0.0000E+00  0.0000E+00
    -36.745  0.0000E+00  0.0000E+00  0.0000E+00  0.0000E+00  0.0000E+00  0.0000E+00  0.0000E+00  0.0000E+00  0.0000E+00  0.0000E+00  0.0000E+00  0.0000E+00  0.0000E+00  0.0000E+00  0.0000E+00  0.0000E+00  0.0000E+00  0.0000E+00
    -36.558  0.0000E+00  0.0000E+00  0.0000E+00  0.0000E+00  0.0000E+00  0.0000E+00  0.0000E+00  0.0000E+00  0.0000E+00  0.0000E+00  0.0000E+00  0.0000E+00  0.0000E+00  0.0000E+00  0.0000E+00  0.0000E+00  0.0000E+00  0.0000E+00
    -36.371  0.0000E+00  0.0000E+00  0.0000E+00  0.0000E+00  0.0000E+00  0.0000E+00  0.0000E+00  0.0000E+00  0.0000E+00  0.0000E+00  0.0000E+00  0.0000E+00  0.0000E+00  0.0000E+00  0.0000E+00  0.0000E+00  0.0000E+00  0.0000E+00
    -36.184  0.0000E+00  0.0000E+00  0.0000E+00  0.0000E+00  0.0000E+00  0.0000E+00  0.0000E+00  0.0000E+00  0.0000E+00  0.0000E+00  0.0000E+00  0.0000E+00  0.0000E+00  0.0000E+00  0.0000E+00  0.0000E+00  0.0000E+00  0.0000E+00
    -35.997  0.0000E+00  0.0000E+00  0.0000E+00  0.0000E+00  0.0000E+00  0.0000E+00  0.0000E+00  0.0000E+00  0.0000E+00  0.0000E+00  0.0000E+00  0.0000E+00  0.0000E+00  0.0000E+00  0.0000E+00  0.0000E+00  0.0000E+00  0.0000E+00
    -35.810  0.0000E+00  0.0000E+00  0.0000E+00  0.0000E+00  0.0000E+00  0.0000E+00  0.0000E+00  0.0000E+00  0.0000E+00  0.0000E+00  0.0000E+00  0.0000E+00  0.0000E+00  0.0000E+00  0.0000E+00  0.0000E+00  0.0000E+00  0.0000E+00
    -35.623  0.0000E+00  0.0000E+00  0.0000E+00  0.0000E+00  0.0000E+00  0.0000E+00  0.0000E+00  0.0000E+00  0.0000E+00  0.0000E+00  0.0000E+00  0.0000E+00  0.0000E+00  0.0000E+00  0.0000E+00  0.0000E+00  0.0000E+00  0.0000E+00
    -35.436  0.0000E+00  0.0000E+00  0.0000E+00  0.0000E+00  0.0000E+00  0.0000E+00  0.0000E+00  0.0000E+00  0.0000E+00  0.0000E+00  0.0000E+00  0.0000E+00  0.0000E+00  0.0000E+00  0.0000E+00  0.0000E+00  0.0000E+00  0.0000E+00
    -35.249  0.0000E+00  0.0000E+00  0.0000E+00  0.0000E+00  0.0000E+00  0.0000E+00  0.0000E+00  0.0000E+00  0.0000E+00  0.0000E+00  0.0000E+00  0.0000E+00  0.0000E+00  0.0000E+00  0.0000E+00  0.0000E+00  0.0000E+00  0.0000E+00
    -35.061  0.0000E+00  0.0000E+00  0.0000E+00  0.0000E+00  0.0000E+00  0.0000E+00  0.0000E+00  0.0000E+00  0.0000E+00  0.0000E+00  0.0000E+00  0.0000E+00  0.0000E+00  0.0000E+00  0.0000E+00  0.0000E+00  0.0000E+00  0.0000E+00
    -34.874  0.0000E+00  0.0000E+00  0.0000E+00  0.0000E+00  0.0000E+00  0.0000E+00  0.0000E+00  0.0000E+00  0.0000E+00  0.0000E+00  0.0000E+00  0.0000E+00  0.0000E+00  0.0000E+00  0.0000E+00  0.0000E+00  0.0000E+00  0.0000E+00