 vasp.6.4.1 05Apr23 (build Jul 24 2024 14:19:02) complex                         
 executed on             LinuxGNU date 2024.10.22  14:33:50
 running    1 mpi-ranks, with   24 threads/rank, on    1 nodes
 distrk:  each k-point on    1 cores,    1 groups
 distr:  one band on NCORE=   1 cores,    1 groups


--------------------------------------------------------------------------------------------------------


 INCAR:
   ISTART = 0
   ALGO = Fast
   EDIFF = 0.0001
   ENCUT = 520
   IBRION = -1
   ISIF = 2
   ISMEAR = -5
   ISPIN = 2
   LASPH = True
   LMAXMIX = 6
   LORBIT = 11
   LREAL = Auto
   LWAVE = False
   MAGMOM = 2*0.6
   NELM = 100
   NSW = 0
   PREC = Accurate
   SIGMA = 0.05

 POTCAR:    PAW_PBE Nb_pv 08Apr2002               
 POTCAR:    PAW_PBE Nb_pv 08Apr2002               
   SHA256 =  bac2b60850b34f8515cf56f9feae68b678e347865051052a0e1f5d2c6a691c0a Nb_pv/POTCAR          
   COPYR  = (c) Copyright 08Apr2002 Georg Kresse                                                    
   COPYR  = This file is part of the software VASP. Any use, copying, and all other rights are regul
   COPYR  = If you do not have a valid VASP license, you may not use, copy or distribute this file. 
   VRHFIN =Nb: 4p5s4d                                                                               
   LEXCH  = PE                                                                                      
   EATOM  =  1043.3917 eV,   76.6871 Ry                                                             
                                                                                                    
   TITEL  = PAW_PBE Nb_pv 08Apr2002                                                                 
   LULTRA =        F    use ultrasoft PP ?                                                          
   IUNSCR =        1    unscreen: 0-lin 1-nonlin 2-no                                               
   RPACOR =    2.200    partial core radius                                                         
   POMASS =   92.000; ZVAL   =   11.000    mass and valenz                                          
   RCORE  =    2.750    outmost cutoff radius                                                       
   RWIGS  =    2.840; RWIGS  =    1.503    wigner-seitz radius (au A)                               
   ENMAX  =  208.608; ENMIN  =  156.456 eV                                                          
   RCLOC  =    2.201    cutoff for local pot                                                        
   LCOR   =        T    correct aug charges                                                         
   LPAW   =        T    paw PP                                                                      
   EAUG   =  355.067                                                                                
   DEXC   =    0.000                                                                                
   RMAX   =    2.804    core radius for proj-oper                                                   
   RAUG   =    1.300    factor for augmentation sphere                                              
   RDEP   =    2.776    radius for radial grids                                                     
   RDEPT  =    2.198    core radius for aug-charge                                                  
                                                                                                    
   Atomic configuration                                                                             
   11 entries                                                                                       
     n  l   j            E        occ.                                                              
     1  0  0.50    -18805.2456   2.0000                                                             
     2  0  0.50     -2630.2869   2.0000                                                             
     2  1  1.50     -2348.4045   6.0000                                                             
     3  0  0.50      -438.8756   2.0000                                                             
     3  1  1.50      -346.7587   6.0000                                                             
     3  2  2.50      -196.2559  10.0000                                                             
     4  0  0.50       -58.3859   2.0000                                                             
     4  1  1.50       -34.5141   6.0000                                                             
     4  2  2.50        -3.0408   4.0000                                                             
     5  0  0.50        -3.9816   1.0000                                                             
     4  3  2.50        -1.3606   0.0000                                                             
   Description                                                                                      
     l       E           TYP  RCUT    TYP  RCUT                                                     
     1    -34.5140617     23  2.600                                                                 
     1     -1.3605826     23  2.600                                                                 
     2     -3.0407924     23  2.600                                                                 
     2     -1.4463597     23  2.600                                                                 
     0     -3.9816219     23  2.750                                                                 
     0     20.4087390     23  2.750                                                                 
  local pseudopotential read in
  partial core-charges read in
  partial kinetic energy density read in
  atomic valenz-charges read in
  non local Contribution for L=           1  read in
    real space projection operators read in
  non local Contribution for L=           1  read in
    real space projection operators read in
  non local Contribution for L=           2  read in
    real space projection operators read in
  non local Contribution for L=           2  read in
    real space projection operators read in
  non local Contribution for L=           0  read in
    real space projection operators read in
  non local Contribution for L=           0  read in
    real space projection operators read in
    PAW grid and wavefunctions read in

   number of l-projection  operators is LMAX  =           6
   number of lm-projection operators is LMMAX =          18

 -----------------------------------------------------------------------------
|                                                                             |
|               ----> ADVICE to this user running VASP <----                  |
|                                                                             |
|     You have a (more or less) 'small supercell' and for smaller cells       |
|     it is recommended to use the reciprocal-space projection scheme!        |
|     The real-space optimization is not efficient for small cells and it     |
|     is also less accurate ...                                               |
|     Therefore, set LREAL=.FALSE. in the INCAR file.                         |
|                                                                             |
 -----------------------------------------------------------------------------

 Optimization of the real space projectors (new method)

 maximal supplied QI-value         = 13.61
 optimisation between [QCUT,QGAM] = [ 11.57, 23.27] = [ 37.45,151.59] Ry 
 Optimized for a Real-space Cutoff    1.63 Angstroem

   l    n(q)    QCUT    max X(q) W(low)/X(q) W(high)/X(q)  e(spline) 
   1     11    11.565     4.545    0.12E-04    0.18E-04    0.64E-07
   1     11    11.565     6.014    0.42E-04    0.48E-04    0.13E-06
   2     10    11.565   266.542    0.24E-03    0.87E-04    0.13E-05
   2     10    11.565   232.726    0.24E-03    0.87E-04    0.13E-05
   0     11    11.565    38.050    0.76E-04    0.32E-05    0.94E-06
   0     11    11.565    16.565    0.58E-04    0.25E-05    0.73E-06
  PAW_PBE Nb_pv 08Apr2002               :
 energy of atom  1       EATOM=-1043.3917
 kinetic energy error for atom=    0.0011 (will be added to EATOM!!)


 POSCAR: Nb2
  positions in direct lattice
  velocities in cartesian coordinates
 exchange correlation table for  LEXCH =        8
   RHO(1)=    0.500       N(1)  =     2000
   RHO(2)=  100.500       N(2)  =     4000



--------------------------------------------------------------------------------------------------------


 ion  position               nearest neighbor table
   1  0.000  0.000  0.000-   2 2.55   2 2.55   2 2.55   2 2.55   2 2.55   2 2.55   2 2.55   2 2.55

   2  0.500  0.500  0.500-   1 2.55   1 2.55   1 2.55   1 2.55   1 2.55   1 2.55   1 2.55   1 2.55


  LATTYP: Found a simple cubic cell.
 ALAT       =     2.9494211670
  
  Lattice vectors:
  
 A1 = (   2.9494211670,   0.0000000000,   0.0000000000)
 A2 = (   0.0000000000,   2.9494211670,   0.0000000000)
 A3 = (  -0.0000000000,  -0.0000000000,   2.9494211670)


Analysis of symmetry for initial positions (statically):
=====================================================================
 Subroutine PRICEL returns following result:
 
  LATTYP: Found a body centered cubic cell.
 ALAT       =     2.9494211670
  
  Lattice vectors:
  
 A1 = (   1.4747105835,   1.4747105835,  -1.4747105835)
 A2 = (  -1.4747105835,   1.4747105835,   1.4747105835)
 A3 = (   1.4747105835,  -1.4747105835,   1.4747105835)
 
   2 primitive cells build up your supercell.
 

 Routine SETGRP: Setting up the symmetry group for a 
 simple cubic supercell.


 Subroutine GETGRP returns: Found 48 space group operations
 (whereof 48 operations were pure point group operations)
 out of a pool of 48 trial point group operations.


The static configuration has the point symmetry O_h .


Analysis of symmetry for dynamics (positions and initial velocities):
=====================================================================
 Subroutine PRICEL returns following result:
 
  LATTYP: Found a body centered cubic cell.
 ALAT       =     2.9494211670
  
  Lattice vectors:
  
 A1 = (   1.4747105835,   1.4747105835,  -1.4747105835)
 A2 = (  -1.4747105835,   1.4747105835,   1.4747105835)
 A3 = (   1.4747105835,  -1.4747105835,   1.4747105835)
 
   2 primitive cells build up your supercell.
 

 Routine SETGRP: Setting up the symmetry group for a 
 simple cubic supercell.


 Subroutine GETGRP returns: Found 48 space group operations
 (whereof 48 operations were pure point group operations)
 out of a pool of 48 trial point group operations.


The dynamic configuration has the point symmetry O_h .


Analysis of structural, dynamic, and magnetic symmetry:
=====================================================================
 Subroutine PRICEL returns following result:
 
  LATTYP: Found a body centered cubic cell.
 ALAT       =     2.9494211670
  
  Lattice vectors:
  
 A1 = (   1.4747105835,   1.4747105835,  -1.4747105835)
 A2 = (  -1.4747105835,   1.4747105835,   1.4747105835)
 A3 = (   1.4747105835,  -1.4747105835,   1.4747105835)
 
   2 primitive cells build up your supercell.
 

 Routine SETGRP: Setting up the symmetry group for a 
 simple cubic supercell.


 Subroutine GETGRP returns: Found 48 space group operations
 (whereof 48 operations were pure point group operations)
 out of a pool of 48 trial point group operations.


The overall configuration has the point symmetry O_h .


 Subroutine INISYM returns: Found 48 space group operations
 (whereof 48 operations are pure point group operations),
 and found     2 'primitive' translations


----------------------------------------------------------------------------------------

                                     Primitive cell                                     

  volume of cell :      12.8286

  direct lattice vectors                    reciprocal lattice vectors
     1.474710583  1.474710583 -1.474710583     0.339049577  0.339049577 -0.000000000
    -1.474710583  1.474710583  1.474710583    -0.000000000  0.339049577  0.339049577
     1.474710583 -1.474710583  1.474710583     0.339049577 -0.000000000  0.339049577

  length of vectors
     2.554273657  2.554273657  2.554273657     0.479488511  0.479488511  0.479488511

  position of ions in fractional coordinates (direct lattice)
     0.000000000  0.000000000  0.000000000

  ion indices of the primitive-cell ions
   primitive index   ion index
                 1           1

----------------------------------------------------------------------------------------



 KPOINTS: pymatgen with grid density = 869 / numbe

Automatic generation of k-mesh.
 Grid dimensions read from file:
 generate k-points for:    7    7    7

 Generating k-lattice:

  Cartesian coordinates                     Fractional coordinates (reciprocal lattice)
     0.048435654 -0.000000000  0.000000000     0.142857143  0.000000000  0.000000000
    -0.000000000  0.048435654  0.000000000     0.000000000  0.142857143  0.000000000
    -0.000000000 -0.000000000  0.048435654     0.000000000  0.000000000  0.142857143

  Length of vectors
     0.048435654  0.048435654  0.048435654

  Shift w.r.t. Gamma in fractional coordinates (k-lattice)
     0.000000000  0.000000000  0.000000000

 TETIRR: Found    163 inequivalent tetrahedra from     2058
 
 Subroutine IBZKPT returns following result:
 ===========================================
 
 Found     20 irreducible k-points:
 
 Following reciprocal coordinates:
            Coordinates               Weight
  0.000000  0.000000  0.000000      1.000000
  0.142857  0.000000  0.000000      6.000000
  0.285714  0.000000  0.000000      6.000000
  0.428571  0.000000  0.000000      6.000000
  0.142857  0.142857  0.000000     12.000000
  0.285714  0.142857  0.000000     24.000000
  0.428571  0.142857  0.000000     24.000000
  0.285714  0.285714  0.000000     12.000000
  0.428571  0.285714  0.000000     24.000000
  0.428571  0.428571  0.000000     12.000000
  0.142857  0.142857  0.142857      8.000000
  0.285714  0.142857  0.142857     24.000000
  0.428571  0.142857  0.142857     24.000000
  0.285714  0.285714  0.142857     24.000000
  0.428571  0.285714  0.142857     48.000000
  0.428571  0.428571  0.142857     24.000000
  0.285714  0.285714  0.285714      8.000000
  0.428571  0.285714  0.285714     24.000000
  0.428571  0.428571  0.285714     24.000000
  0.428571  0.428571  0.428571      8.000000
 
 Following cartesian coordinates:
            Coordinates               Weight
  0.000000  0.000000  0.000000      1.000000
  0.043006  0.000000  0.000000      6.000000
  0.086012  0.000000  0.000000      6.000000
  0.129019  0.000000  0.000000      6.000000
  0.043006  0.043006  0.000000     12.000000
  0.086012  0.043006  0.000000     24.000000
  0.129019  0.043006  0.000000     24.000000
  0.086012  0.086012  0.000000     12.000000
  0.129019  0.086012  0.000000     24.000000
  0.129019  0.129019  0.000000     12.000000
  0.043006  0.043006  0.043006      8.000000
  0.086012  0.043006  0.043006     24.000000
  0.129019  0.043006  0.043006     24.000000
  0.086012  0.086012  0.043006     24.000000
  0.129019  0.086012  0.043006     48.000000
  0.129019  0.129019  0.043006     24.000000
  0.086012  0.086012  0.086012      8.000000
  0.129019  0.086012  0.086012     24.000000
  0.129019  0.129019  0.086012     24.000000
  0.129019  0.129019  0.129019      8.000000
 


--------------------------------------------------------------------------------------------------------




 Dimension of arrays:
   k-points           NKPTS =     20   k-points in BZ     NKDIM =     20   number of bands    NBANDS=     16
   number of dos      NEDOS =    301   number of ions     NIONS =      2
   non local maximal  LDIM  =      6   non local SUM 2l+1 LMDIM =     18
   total plane-waves  NPLWV =  13824
   max r-space proj   IRMAX =   9774   max aug-charges    IRDMAX=  33368
   dimension x,y,z NGX =    24 NGY =   24 NGZ =   24
   dimension x,y,z NGXF=    48 NGYF=   48 NGZF=   48
   support grid    NGXF=    48 NGYF=   48 NGZF=   48
   ions per type =               2
   NGX,Y,Z   is equivalent  to a cutoff of  13.53, 13.53, 13.53 a.u.
   NGXF,Y,Z  is equivalent  to a cutoff of  27.06, 27.06, 27.06 a.u.

 SYSTEM =  unknown system                          
 POSCAR =  Nb2                                     

 Startparameter for this run:
   NWRITE =      2    write-flag & timer
   PREC   = accura    normal or accurate (medium, high low for compatibility)
   ISTART =      0    job   : 0-new  1-cont  2-samecut
   ICHARG =      2    charge: 1-file 2-atom 10-const
   ISPIN  =      2    spin polarized calculation?
   LNONCOLLINEAR =      F non collinear calculations
   LSORBIT =      F    spin-orbit coupling
   INIWAV =      1    electr: 0-lowe 1-rand  2-diag
   LASPH  =      T    aspherical Exc in radial PAW
 Electronic Relaxation 1
   ENCUT  =  520.0 eV  38.22 Ry    6.18 a.u.   5.48  5.48  5.48*2*pi/ulx,y,z
   ENINI  =  520.0     initial cutoff
   ENAUG  =  355.1 eV  augmentation charge cutoff
   NELM   =    100;   NELMIN=  2; NELMDL= -5     # of ELM steps 
   EDIFF  = 0.1E-03   stopping-criterion for ELM
   LREAL  =      T    real-space projection
   NLSPLINE    = F    spline interpolate recip. space projectors
   LCOMPAT=      F    compatible to vasp.4.4
   GGA_COMPAT  = T    GGA compatible to vasp.4.4-vasp.4.6
   LMAXPAW     = -100 max onsite density
   LMAXMIX     =    6 max onsite mixed and CHGCAR
   VOSKOWN=      0    Vosko Wilk Nusair interpolation
   ROPT   =   -0.00025
 Ionic relaxation
   EDIFFG = 0.1E-02   stopping-criterion for IOM
   NSW    =      0    number of steps for IOM
   NBLOCK =      1;   KBLOCK =      1    inner block; outer block 
   IBRION =     -1    ionic relax: 0-MD 1-quasi-New 2-CG
   NFREE  =      0    steps in history (QN), initial steepest desc. (CG)
   ISIF   =      2    stress and relaxation
   IWAVPR =     10    prediction:  0-non 1-charg 2-wave 3-comb
   ISYM   =      2    0-nonsym 1-usesym 2-fastsym
   LCORR  =      T    Harris-Foulkes like correction to forces

   POTIM  = 0.5000    time-step for ionic-motion
   TEIN   =    0.0    initial temperature
   TEBEG  =    0.0;   TEEND  =   0.0 temperature during run
   SMASS  =  -3.00    Nose mass-parameter (am)
   estimated Nose-frequenzy (Omega)   =  0.10E-29 period in steps = 0.13E+47 mass=  -0.199E-27a.u.
   SCALEE = 1.0000    scale energy and forces
   NPACO  =    256;   APACO  = 10.0  distance and # of slots for P.C.
   PSTRESS=    0.0 pullay stress

  Mass of Ions in am
   POMASS =  92.00
  Ionic Valenz
   ZVAL   =  11.00
  Atomic Wigner-Seitz radii
   RWIGS  =  -1.00
  virtual crystal weights 
   VCA    =   1.00
   NELECT =      22.0000    total number of electrons
   NUPDOWN=      -1.0000    fix difference up-down

 DOS related values:
   EMIN   =  10.00;   EMAX   =-10.00  energy-range for DOS
   EFERMI =   0.00;   METHOD = LEGACY      
   ISMEAR =    -5;   SIGMA  =   0.05  broadening in eV -4-tet -1-fermi 0-gaus

 Electronic relaxation 2 (details)
   IALGO  =     68    algorithm
   LDIAG  =      T    sub-space diagonalisation (order eigenvalues)
   LSUBROT=      F    optimize rotation matrix (better conditioning)
   TURBO    =      0    0=normal 1=particle mesh
   IRESTART =      0    0=no restart 2=restart with 2 vectors
   NREBOOT  =      0    no. of reboots
   NMIN     =      0    reboot dimension
   EREF     =   0.00    reference energy to select bands
   IMIX   =      4    mixing-type and parameters
     AMIX     =   0.40;   BMIX     =  1.00
     AMIX_MAG =   1.60;   BMIX_MAG =  1.00
     AMIN     =   0.10
     WC   =   100.;   INIMIX=   1;  MIXPRE=   1;  MAXMIX= -45

 Intra band minimization:
   WEIMIN = 0.0000     energy-eigenvalue tresh-hold
   EBREAK =  0.16E-05  absolut break condition
   DEPER  =   0.30     relativ break condition  

   TIME   =   0.40     timestep for ELM

  volume/ion in A,a.u.               =      12.83        86.57
  Fermi-wavevector in a.u.,A,eV,Ry     =   1.555293  2.939078 32.911634  2.418937
  Thomas-Fermi vector in A             =   2.659255

 Write flags
   LWAVE        =      F    write WAVECAR
   LDOWNSAMPLE  =      F    k-point downsampling of WAVECAR
   LCHARG       =      T    write CHGCAR
   LVTOT        =      F    write LOCPOT, total local potential
   LVHAR        =      F    write LOCPOT, Hartree potential only
   LELF         =      F    write electronic localiz. function (ELF)
   LORBIT       =     11    0 simple, 1 ext, 2 COOP (PROOUT), +10 PAW based schemes


 Dipole corrections
   LMONO  =      F    monopole corrections only (constant potential shift)
   LDIPOL =      F    correct potential (dipole corrections)
   IDIPOL =      0    1-x, 2-y, 3-z, 4-all directions 
   EPSILON=  1.0000000 bulk dielectric constant

 Exchange correlation treatment:
   GGA     =    --    GGA type
   LEXCH   =     8    internal setting for exchange type
   LIBXC   =     F    Libxc                    
   VOSKOWN =     0    Vosko Wilk Nusair interpolation
   LHFCALC =     F    Hartree Fock is set to
   LHFONE  =     F    Hartree Fock one center treatment
   AEXX    =    0.0000 exact exchange contribution

 Linear response parameters
   LEPSILON=     F    determine dielectric tensor
   LRPA    =     F    only Hartree local field effects (RPA)
   LNABLA  =     F    use nabla operator in PAW spheres
   LVEL    =     F    velocity operator in full k-point grid
   CSHIFT  =0.1000    complex shift for real part using Kramers Kronig
   OMEGAMAX=  -1.0    maximum frequency
   DEG_THRESHOLD= 0.2000000E-02 threshold for treating states as degnerate
   RTIME   =   -0.100 relaxation time in fs
  (WPLASMAI=    0.000 imaginary part of plasma frequency in eV, 0.658/RTIME)
   DFIELD  = 0.0000000 0.0000000 0.0000000 field for delta impulse in time

  Optional k-point grid parameters
   LKPOINTS_OPT  =     F    use optional k-point grid
   KPOINTS_OPT_MODE=     1    mode for optional k-point grid

 Orbital magnetization related:
   ORBITALMAG=     F  switch on orbital magnetization
   LCHIMAG   =     F  perturbation theory with respect to B field
   DQ        =  0.001000  dq finite difference perturbation B field
   LLRAUG    =     F  two centre corrections for induced B field
   LBONE     =     F  B-component reconstruction in AE one-centre
   LVGVCALC  =     T  calculate vGv susceptibility
   LVGVAPPL  =     F  apply vGv susceptibility instead of pGv for G=0

 Random number generation:
   RANDOM_GENERATOR = DEFAULT
   PCG_SEED         = not used


--------------------------------------------------------------------------------------------------------


 Static calculation
 charge density and potential will be updated during run
 spin polarized calculation
 RMM-DIIS sequential band-by-band and
  variant of blocked Davidson during initial phase
 perform sub-space diagonalisation
    before iterative eigenvector-optimisation
 modified Broyden-mixing scheme, WC =      100.0
 initial mixing is a Kerker type mixing with AMIX =  0.4000 and BMIX =      1.0000
 Hartree-type preconditioning will be used
 using additional bands            5
 real space projection scheme for non local part
 use partial core corrections
 calculate Harris-corrections to forces   (improved forces if not selfconsistent)
 use gradient corrections 
 use of overlap-Matrix (Vanderbilt PP)
 Fermi weights with tetrahedron method with Bloechl corrections


--------------------------------------------------------------------------------------------------------


  energy-cutoff  :      520.00
  volume of cell :       25.66
      direct lattice vectors                 reciprocal lattice vectors
     2.949421167  0.000000000  0.000000000     0.339049577 -0.000000000  0.000000000
     0.000000000  2.949421167  0.000000000    -0.000000000  0.339049577  0.000000000
    -0.000000000 -0.000000000  2.949421167    -0.000000000 -0.000000000  0.339049577

  length of vectors
     2.949421167  2.949421167  2.949421167     0.339049577  0.339049577  0.339049577



 k-points in units of 2pi/SCALE and weight: pymatgen with grid density = 869 / numbe
   0.00000000  0.00000000  0.00000000       0.003
   0.04300621  0.00000000  0.00000000       0.017
   0.08601242  0.00000000  0.00000000       0.017
   0.12901863  0.00000000  0.00000000       0.017
   0.04300621  0.04300621  0.00000000       0.035
   0.08601242  0.04300621  0.00000000       0.070
   0.12901863  0.04300621  0.00000000       0.070
   0.08601242  0.08601242  0.00000000       0.035
   0.12901863  0.08601242  0.00000000       0.070
   0.12901863  0.12901863  0.00000000       0.035
   0.04300621  0.04300621  0.04300621       0.023
   0.08601242  0.04300621  0.04300621       0.070
   0.12901863  0.04300621  0.04300621       0.070
   0.08601242  0.08601242  0.04300621       0.070
   0.12901863  0.08601242  0.04300621       0.140
   0.12901863  0.12901863  0.04300621       0.070
   0.08601242  0.08601242  0.08601242       0.023
   0.12901863  0.08601242  0.08601242       0.070
   0.12901863  0.12901863  0.08601242       0.070
   0.12901863  0.12901863  0.12901863       0.023

 k-points in reciprocal lattice and weights: pymatgen with grid density = 869 / numbe
   0.00000000  0.00000000  0.00000000       0.003
   0.14285714  0.00000000  0.00000000       0.017
   0.28571429  0.00000000  0.00000000       0.017
   0.42857143  0.00000000  0.00000000       0.017
   0.14285714  0.14285714  0.00000000       0.035
   0.28571429  0.14285714  0.00000000       0.070
   0.42857143  0.14285714  0.00000000       0.070
   0.28571429  0.28571429  0.00000000       0.035
   0.42857143  0.28571429  0.00000000       0.070
   0.42857143  0.42857143  0.00000000       0.035
   0.14285714  0.14285714  0.14285714       0.023
   0.28571429  0.14285714  0.14285714       0.070
   0.42857143  0.14285714  0.14285714       0.070
   0.28571429  0.28571429  0.14285714       0.070
   0.42857143  0.28571429  0.14285714       0.140
   0.42857143  0.42857143  0.14285714       0.070
   0.28571429  0.28571429  0.28571429       0.023
   0.42857143  0.28571429  0.28571429       0.070
   0.42857143  0.42857143  0.28571429       0.070
   0.42857143  0.42857143  0.42857143       0.023

 position of ions in fractional coordinates (direct lattice) 
   0.00000000  0.00000000  0.00000000
   0.50000000  0.50000000  0.50000000

 position of ions in cartesian coordinates  (Angst):
   0.00000000  0.00000000  0.00000000
   1.47471058  1.47471058  1.47471058



--------------------------------------------------------------------------------------------------------


 k-point   1 :   0.0000 0.0000 0.0000  plane waves:     739
 k-point   2 :   0.1429 0.0000 0.0000  plane waves:     703
 k-point   3 :   0.2857 0.0000 0.0000  plane waves:     687
 k-point   4 :   0.4286 0.0000 0.0000  plane waves:     695
 k-point   5 :   0.1429 0.1429 0.0000  plane waves:     698
 k-point   6 :   0.2857 0.1429 0.0000  plane waves:     691
 k-point   7 :   0.4286 0.1429 0.0000  plane waves:     697
 k-point   8 :   0.2857 0.2857 0.0000  plane waves:     690
 k-point   9 :   0.4286 0.2857 0.0000  plane waves:     693
 k-point  10 :   0.4286 0.4286 0.0000  plane waves:     684
 k-point  11 :   0.1429 0.1429 0.1429  plane waves:     700
 k-point  12 :   0.2857 0.1429 0.1429  plane waves:     697
 k-point  13 :   0.4286 0.1429 0.1429  plane waves:     685
 k-point  14 :   0.2857 0.2857 0.1429  plane waves:     697
 k-point  15 :   0.4286 0.2857 0.1429  plane waves:     690
 k-point  16 :   0.4286 0.4286 0.1429  plane waves:     686
 k-point  17 :   0.2857 0.2857 0.2857  plane waves:     690
 k-point  18 :   0.4286 0.2857 0.2857  plane waves:     692
 k-point  19 :   0.4286 0.4286 0.2857  plane waves:     675
 k-point  20 :   0.4286 0.4286 0.4286  plane waves:     684

 maximum and minimum number of plane-waves per node :       739      675

 maximum number of plane-waves:       739
 maximum index in each direction: 
   IXMAX=    5   IYMAX=    5   IZMAX=    5
   IXMIN=   -5   IYMIN=   -5   IZMIN=   -5


 serial   3D FFT for wavefunctions
 parallel 3D FFT for charge:
    minimum data exchange during FFTs selected (reduces bandwidth)


 total amount of memory used by VASP MPI-rank0    54950. kBytes
=======================================================================

   base      :      30000. kBytes
   nonlr-proj:       3691. kBytes
   fftplans  :       3916. kBytes
   grid      :       9345. kBytes
   one-center:         62. kBytes
   wavefun   :       7936. kBytes

     INWAV:  cpu time      0.0000: real time      0.0001
 Broyden mixing: mesh for mixing (old mesh)
   NGX = 11   NGY = 11   NGZ = 11
  (NGX  = 48   NGY  = 48   NGZ  = 48)
  gives a total of   1331 points

 initial charge density was supplied:
 charge density of overlapping atoms calculated
 number of electron      22.0000000 magnetization       1.2000000
 keeping initial charge density in first step


--------------------------------------------------------------------------------------------------------


 Maximum index for non-local projection operator          545
 Maximum index for augmentation-charges        32231 (set IRDMAX)


--------------------------------------------------------------------------------------------------------


 First call to EWALD:  gamma=   0.601
 Maximum number of real-space cells 3x 3x 3
 Maximum number of reciprocal cells 3x 3x 3

    FEWALD:  cpu time      0.0079: real time      0.0054


--------------------------------------- Ionic step        1  -------------------------------------------




--------------------------------------- Iteration      1(   1)  ---------------------------------------


    POTLOK:  cpu time      1.1046: real time      0.0794
    SETDIJ:  cpu time      1.1065: real time      0.2530
     EDDAV:  cpu time    105.9928: real time      6.0152
 BZINTS: Fermi energy:   26.935656;   22.000000 electrons
         Band energy: 0.276105E+02;  BLOECHL correction:   -0.919031
       DOS:  cpu time      0.1191: real time      0.0091
    --------------------------------------------
      LOOP:  cpu time    108.3231: real time      6.3567

 eigenvalue-minimisations  :  1424
 total energy-change (2. order) : 0.2061784E+03  (-0.1180087E+04)
 number of electron      22.0000000 magnetization       1.2000000
 augmentation part       22.0000000 magnetization       1.2000000

 Free energy of the ion-electron system (eV)
  ---------------------------------------------------
  alpha Z        PSCENC =       352.88920226
  Ewald energy   TEWEN  =     -2149.88172878
  -Hartree energ DENC   =      -199.24321397
  -exchange      EXHF   =         0.00000000
  -V(xc)+E(xc)   XCENC  =        56.11391932
  PAW double counting   =      1671.32378679    -1639.41528309
  entropy T*S    EENTRO =         0.00000000
  eigenvalues    EBANDS =        27.61049092
  atomic energy  EATOM  =      2086.78124273
  Solvation  Ediel_sol  =         0.00000000
  ---------------------------------------------------
  free energy    TOTEN  =       206.17841618 eV

  energy without entropy =      206.17841618  energy(sigma->0) =      206.17841618


--------------------------------------------------------------------------------------------------------




--------------------------------------- Iteration      1(   2)  ---------------------------------------


     EDDAV:  cpu time    112.8329: real time      6.2684
 BZINTS: Fermi energy:    9.760541;   22.000000 electrons
         Band energy:-0.187249E+03;  BLOECHL correction:   -0.454878
       DOS:  cpu time      0.1192: real time      0.0092
    --------------------------------------------
      LOOP:  cpu time    112.9521: real time      6.2776

 eigenvalue-minimisations  :  1360
 total energy-change (2. order) :-0.2148591E+03  (-0.2112389E+03)
 number of electron      22.0000000 magnetization       1.2000000
 augmentation part       22.0000000 magnetization       1.2000000

 Free energy of the ion-electron system (eV)
  ---------------------------------------------------
  alpha Z        PSCENC =       352.88920226
  Ewald energy   TEWEN  =     -2149.88172878
  -Hartree energ DENC   =      -199.24321397
  -exchange      EXHF   =         0.00000000
  -V(xc)+E(xc)   XCENC  =        56.11391932
  PAW double counting   =      1671.32378679    -1639.41528309
  entropy T*S    EENTRO =         0.00000000
  eigenvalues    EBANDS =      -187.24860202
  atomic energy  EATOM  =      2086.78124273
  Solvation  Ediel_sol  =         0.00000000
  ---------------------------------------------------
  free energy    TOTEN  =        -8.68067676 eV

  energy without entropy =       -8.68067676  energy(sigma->0) =       -8.68067676


--------------------------------------------------------------------------------------------------------




--------------------------------------- Iteration      1(   3)  ---------------------------------------


     EDDAV:  cpu time    136.4274: real time      7.7965
 BZINTS: Fermi energy:    8.614053;   22.000000 electrons
         Band energy:-0.196121E+03;  BLOECHL correction:   -0.330488
       DOS:  cpu time      0.1313: real time      0.0090
    --------------------------------------------
      LOOP:  cpu time    136.5587: real time      7.8055

 eigenvalue-minimisations  :  2096
 total energy-change (2. order) :-0.8872566E+01  (-0.8463883E+01)
 number of electron      22.0000000 magnetization       1.2000000
 augmentation part       22.0000000 magnetization       1.2000000

 Free energy of the ion-electron system (eV)
  ---------------------------------------------------
  alpha Z        PSCENC =       352.88920226
  Ewald energy   TEWEN  =     -2149.88172878
  -Hartree energ DENC   =      -199.24321397
  -exchange      EXHF   =         0.00000000
  -V(xc)+E(xc)   XCENC  =        56.11391932
  PAW double counting   =      1671.32378679    -1639.41528309
  entropy T*S    EENTRO =         0.00000000
  eigenvalues    EBANDS =      -196.12116773
  atomic energy  EATOM  =      2086.78124273
  Solvation  Ediel_sol  =         0.00000000
  ---------------------------------------------------
  free energy    TOTEN  =       -17.55324247 eV

  energy without entropy =      -17.55324247  energy(sigma->0) =      -17.55324247


--------------------------------------------------------------------------------------------------------




--------------------------------------- Iteration      1(   4)  ---------------------------------------


     EDDAV:  cpu time    135.4286: real time      7.4220
 BZINTS: Fermi energy:    8.606177;   22.000000 electrons
         Band energy:-0.196222E+03;  BLOECHL correction:   -0.331142
       DOS:  cpu time      0.1084: real time      0.0092
    --------------------------------------------
      LOOP:  cpu time    135.5370: real time      7.4312

 eigenvalue-minimisations  :  1576
 total energy-change (2. order) :-0.1005035E+00  (-0.1000195E+00)
 number of electron      22.0000000 magnetization       1.2000000
 augmentation part       22.0000000 magnetization       1.2000000

 Free energy of the ion-electron system (eV)
  ---------------------------------------------------
  alpha Z        PSCENC =       352.88920226
  Ewald energy   TEWEN  =     -2149.88172878
  -Hartree energ DENC   =      -199.24321397
  -exchange      EXHF   =         0.00000000
  -V(xc)+E(xc)   XCENC  =        56.11391932
  PAW double counting   =      1671.32378679    -1639.41528309
  entropy T*S    EENTRO =         0.00000000
  eigenvalues    EBANDS =      -196.22167127
  atomic energy  EATOM  =      2086.78124273
  Solvation  Ediel_sol  =         0.00000000
  ---------------------------------------------------
  free energy    TOTEN  =       -17.65374601 eV

  energy without entropy =      -17.65374601  energy(sigma->0) =      -17.65374601


--------------------------------------------------------------------------------------------------------




--------------------------------------- Iteration      1(   5)  ---------------------------------------


     EDDAV:  cpu time    146.1743: real time      8.2635
 BZINTS: Fermi energy:    8.606018;   22.000000 electrons
         Band energy:-0.196224E+03;  BLOECHL correction:   -0.331175
       DOS:  cpu time      0.1143: real time      0.0089
    CHARGE:  cpu time      8.2382: real time      0.4581
    MIXING:  cpu time      0.0902: real time      0.0011
    --------------------------------------------
      LOOP:  cpu time    154.6171: real time      8.7316

 eigenvalue-minimisations  :  1936
 total energy-change (2. order) :-0.2275102E-02  (-0.2250666E-02)
 number of electron      21.9999995 magnetization       0.0484475
 augmentation part        7.9534419 magnetization      -0.1893368

 Broyden mixing:
  rms(total) = 0.45379E+01    rms(broyden)= 0.45379E+01
  rms(prec ) = 0.46735E+01
  weight for this iteration     100.00

 Free energy of the ion-electron system (eV)
  ---------------------------------------------------
  alpha Z        PSCENC =       352.88920226
  Ewald energy   TEWEN  =     -2149.88172878
  -Hartree energ DENC   =      -199.24321397
  -exchange      EXHF   =         0.00000000
  -V(xc)+E(xc)   XCENC  =        56.11391932
  PAW double counting   =      1671.32378679    -1639.41528309
  entropy T*S    EENTRO =         0.00000000
  eigenvalues    EBANDS =      -196.22394637
  atomic energy  EATOM  =      2086.78124273
  Solvation  Ediel_sol  =         0.00000000
  ---------------------------------------------------
  free energy    TOTEN  =       -17.65602111 eV

  energy without entropy =      -17.65602111  energy(sigma->0) =      -17.65602111


--------------------------------------------------------------------------------------------------------




--------------------------------------- Iteration      1(   6)  ---------------------------------------


    POTLOK:  cpu time      0.9524: real time      0.0735
    SETDIJ:  cpu time      1.0693: real time      0.2519
    EDDIAG:  cpu time     24.3689: real time      1.3576
  RMM-DIIS:  cpu time     73.1136: real time      4.0643
    ORTHCH:  cpu time      0.4571: real time      0.0233
 BZINTS: Fermi energy:    8.468168;   22.000000 electrons
         Band energy:-0.202526E+03;  BLOECHL correction:   -0.331606
       DOS:  cpu time      0.1201: real time      0.0104
    CHARGE:  cpu time      6.7709: real time      0.3978
    MIXING:  cpu time      0.0009: real time      0.0009
    --------------------------------------------
      LOOP:  cpu time    106.8530: real time      6.1796

 eigenvalue-minimisations  :  1492
 total energy-change (2. order) : 0.3907670E+00  (-0.2258156E-01)
 number of electron      21.9999995 magnetization       0.0579377
 augmentation part        8.0217921 magnetization       0.0112076

 Broyden mixing:
  rms(total) = 0.23148E+01    rms(broyden)= 0.23148E+01
  rms(prec ) = 0.23936E+01
  weight for this iteration     100.00

 eigenvalues of (default mixing * dielectric matrix)
  average eigenvalue GAMMA=   1.9379
  1.9379

 Free energy of the ion-electron system (eV)
  ---------------------------------------------------
  alpha Z        PSCENC =       352.88920226
  Ewald energy   TEWEN  =     -2149.88172878
  -Hartree energ DENC   =      -188.00394295
  -exchange      EXHF   =         0.00000000
  -V(xc)+E(xc)   XCENC  =        55.48503389
  PAW double counting   =      2859.58334305    -2831.59276451
  entropy T*S    EENTRO =         0.00000000
  eigenvalues    EBANDS =      -202.52563984
  atomic energy  EATOM  =      2086.78124273
  Solvation  Ediel_sol  =         0.00000000
  ---------------------------------------------------
  free energy    TOTEN  =       -17.26525415 eV

  energy without entropy =      -17.26525415  energy(sigma->0) =      -17.26525415


--------------------------------------------------------------------------------------------------------




--------------------------------------- Iteration      1(   7)  ---------------------------------------


    POTLOK:  cpu time      0.9883: real time      0.0760
    SETDIJ:  cpu time      1.1726: real time      0.2594
    EDDIAG:  cpu time     19.9404: real time      1.1494
  RMM-DIIS:  cpu time    114.4931: real time      6.0100
    ORTHCH:  cpu time      0.4469: real time      0.0263
 BZINTS: Fermi energy:    8.329341;   22.000000 electrons
         Band energy:-0.209129E+03;  BLOECHL correction:   -0.334837
       DOS:  cpu time      0.0086: real time      0.0086
    CHARGE:  cpu time      7.9131: real time      0.4539
    MIXING:  cpu time      0.0013: real time      0.0013
    --------------------------------------------
      LOOP:  cpu time    144.9643: real time      7.9851

 eigenvalue-minimisations  :  1846
 total energy-change (2. order) : 0.1846248E+00  (-0.8050590E-01)
 number of electron      21.9999995 magnetization      -0.0096105
 augmentation part        8.1356237 magnetization       0.0382398

 Broyden mixing:
  rms(total) = 0.44496E+00    rms(broyden)= 0.44496E+00
  rms(prec ) = 0.45242E+00
  weight for this iteration     100.00

 eigenvalues of (default mixing * dielectric matrix)
  average eigenvalue GAMMA=   1.2862
  2.0580  0.5144

 Free energy of the ion-electron system (eV)
  ---------------------------------------------------
  alpha Z        PSCENC =       352.88920226
  Ewald energy   TEWEN  =     -2149.88172878
  -Hartree energ DENC   =      -176.17866634
  -exchange      EXHF   =         0.00000000
  -V(xc)+E(xc)   XCENC  =        54.89502971
  PAW double counting   =      4663.36427169    -4639.82064260
  entropy T*S    EENTRO =         0.00000000
  eigenvalues    EBANDS =      -209.12933806
  atomic energy  EATOM  =      2086.78124273
  Solvation  Ediel_sol  =         0.00000000
  ---------------------------------------------------
  free energy    TOTEN  =       -17.08062939 eV

  energy without entropy =      -17.08062939  energy(sigma->0) =      -17.08062939


--------------------------------------------------------------------------------------------------------




--------------------------------------- Iteration      1(   8)  ---------------------------------------


    POTLOK:  cpu time      0.9056: real time      0.0751
    SETDIJ:  cpu time      1.1224: real time      0.2569
    EDDIAG:  cpu time     23.3304: real time      1.3081
  RMM-DIIS:  cpu time     90.7364: real time      4.9890
    ORTHCH:  cpu time      0.4784: real time      0.0284
 BZINTS: Fermi energy:    8.338298;   22.000000 electrons
         Band energy:-0.208833E+03;  BLOECHL correction:   -0.335044
       DOS:  cpu time      0.1183: real time      0.0090
    CHARGE:  cpu time      8.2222: real time      0.4560
    MIXING:  cpu time      0.0011: real time      0.0011
    --------------------------------------------
      LOOP:  cpu time    124.9148: real time      7.1237

 eigenvalue-minimisations  :  1804
 total energy-change (2. order) :-0.1280702E-01  (-0.3550735E-02)
 number of electron      21.9999995 magnetization      -0.0178562
 augmentation part        8.1381542 magnetization       0.0057585

 Broyden mixing:
  rms(total) = 0.16092E+00    rms(broyden)= 0.16092E+00
  rms(prec ) = 0.18005E+00
  weight for this iteration     100.00

 eigenvalues of (default mixing * dielectric matrix)
  average eigenvalue GAMMA=   1.1976
  2.2215  0.7984  0.5728

 Free energy of the ion-electron system (eV)
  ---------------------------------------------------
  alpha Z        PSCENC =       352.88920226
  Ewald energy   TEWEN  =     -2149.88172878
  -Hartree energ DENC   =      -176.30147845
  -exchange      EXHF   =         0.00000000
  -V(xc)+E(xc)   XCENC  =        54.89212173
  PAW double counting   =      4779.34300540    -4755.98328773
  entropy T*S    EENTRO =         0.00000000
  eigenvalues    EBANDS =      -208.83251357
  atomic energy  EATOM  =      2086.78124273
  Solvation  Ediel_sol  =         0.00000000
  ---------------------------------------------------
  free energy    TOTEN  =       -17.09343641 eV

  energy without entropy =      -17.09343641  energy(sigma->0) =      -17.09343641


--------------------------------------------------------------------------------------------------------




--------------------------------------- Iteration      1(   9)  ---------------------------------------


    POTLOK:  cpu time      1.6080: real time      0.1054
    SETDIJ:  cpu time      1.1107: real time      0.2492
    EDDIAG:  cpu time     21.6715: real time      1.2494
  RMM-DIIS:  cpu time     84.9812: real time      4.7474
    ORTHCH:  cpu time      0.4559: real time      0.0258
 BZINTS: Fermi energy:    8.350609;   22.000000 electrons
         Band energy:-0.208402E+03;  BLOECHL correction:   -0.335229
       DOS:  cpu time      0.1235: real time      0.0135
    CHARGE:  cpu time      8.2355: real time      0.4654
    MIXING:  cpu time      0.0015: real time      0.0015
    --------------------------------------------
      LOOP:  cpu time    118.1878: real time      6.8575

 eigenvalue-minimisations  :  1755
 total energy-change (2. order) :-0.1782055E-03  (-0.9389139E-03)
 number of electron      21.9999995 magnetization       0.0283068
 augmentation part        8.1346980 magnetization       0.0388759

 Broyden mixing:
  rms(total) = 0.97695E-01    rms(broyden)= 0.97695E-01
  rms(prec ) = 0.11554E+00
  weight for this iteration     100.00

 eigenvalues of (default mixing * dielectric matrix)
  average eigenvalue GAMMA=   1.3043
  2.5084  1.3432  0.7664  0.5992

 Free energy of the ion-electron system (eV)
  ---------------------------------------------------
  alpha Z        PSCENC =       352.88920226
  Ewald energy   TEWEN  =     -2149.88172878
  -Hartree energ DENC   =      -176.62120571
  -exchange      EXHF   =         0.00000000
  -V(xc)+E(xc)   XCENC  =        54.90640033
  PAW double counting   =      4896.69625701    -4873.46214292
  entropy T*S    EENTRO =         0.00000000
  eigenvalues    EBANDS =      -208.40163954
  atomic energy  EATOM  =      2086.78124273
  Solvation  Ediel_sol  =         0.00000000
  ---------------------------------------------------
  free energy    TOTEN  =       -17.09361461 eV

  energy without entropy =      -17.09361461  energy(sigma->0) =      -17.09361461


--------------------------------------------------------------------------------------------------------




--------------------------------------- Iteration      1(  10)  ---------------------------------------


    POTLOK:  cpu time      1.3339: real time      0.0956
    SETDIJ:  cpu time      1.0539: real time      0.2659
    EDDIAG:  cpu time     46.6841: real time      2.4324
  RMM-DIIS:  cpu time     72.9189: real time      4.1262
    ORTHCH:  cpu time      0.3286: real time      0.0210
 BZINTS: Fermi energy:    8.385059;   22.000000 electrons
         Band energy:-0.207138E+03;  BLOECHL correction:   -0.335628
       DOS:  cpu time      0.1221: real time      0.0121
    CHARGE:  cpu time      7.6717: real time      0.4398
    MIXING:  cpu time      0.1074: real time      0.0014
    --------------------------------------------
      LOOP:  cpu time    130.2205: real time      7.3944

 eigenvalue-minimisations  :  1592
 total energy-change (2. order) : 0.1441436E-02  (-0.1030181E-02)
 number of electron      21.9999995 magnetization       0.0009024
 augmentation part        8.1228946 magnetization      -0.0041309

 Broyden mixing:
  rms(total) = 0.43256E-01    rms(broyden)= 0.43256E-01
  rms(prec ) = 0.44370E-01
  weight for this iteration     100.00

 eigenvalues of (default mixing * dielectric matrix)
  average eigenvalue GAMMA=   1.3371
  2.6444  1.6228  1.0824  0.5974  0.7384

 Free energy of the ion-electron system (eV)
  ---------------------------------------------------
  alpha Z        PSCENC =       352.88920226
  Ewald energy   TEWEN  =     -2149.88172878
  -Hartree energ DENC   =      -177.82056280
  -exchange      EXHF   =         0.00000000
  -V(xc)+E(xc)   XCENC  =        54.96460936
  PAW double counting   =      5167.06943441    -5143.95653400
  entropy T*S    EENTRO =         0.00000000
  eigenvalues    EBANDS =      -207.13783636
  atomic energy  EATOM  =      2086.78124273
  Solvation  Ediel_sol  =         0.00000000
  ---------------------------------------------------
  free energy    TOTEN  =       -17.09217318 eV

  energy without entropy =      -17.09217318  energy(sigma->0) =      -17.09217318


--------------------------------------------------------------------------------------------------------




--------------------------------------- Iteration      1(  11)  ---------------------------------------


    POTLOK:  cpu time      1.1107: real time      0.0849
    SETDIJ:  cpu time      1.1138: real time      0.2538
    EDDIAG:  cpu time     23.8228: real time      1.3245
  RMM-DIIS:  cpu time     76.7580: real time      4.2075
    ORTHCH:  cpu time      0.3167: real time      0.0213
 BZINTS: Fermi energy:    8.377449;   22.000000 electrons
         Band energy:-0.207396E+03;  BLOECHL correction:   -0.335498
       DOS:  cpu time      0.1193: real time      0.0094
    CHARGE:  cpu time      8.1596: real time      0.4690
    MIXING:  cpu time      0.0013: real time      0.0013
    --------------------------------------------
      LOOP:  cpu time    111.4023: real time      6.3716

 eigenvalue-minimisations  :  1389
 total energy-change (2. order) : 0.2553594E-03  (-0.8160475E-04)
 number of electron      21.9999995 magnetization      -0.0003451
 augmentation part        8.1241595 magnetization       0.0002108

 Broyden mixing:
  rms(total) = 0.69228E-02    rms(broyden)= 0.69228E-02
  rms(prec ) = 0.71615E-02
  weight for this iteration     100.00

 eigenvalues of (default mixing * dielectric matrix)
  average eigenvalue GAMMA=   1.2381
  2.6330  1.7036  1.1466  0.7427  0.6434  0.5594

 Free energy of the ion-electron system (eV)
  ---------------------------------------------------
  alpha Z        PSCENC =       352.88920226
  Ewald energy   TEWEN  =     -2149.88172878
  -Hartree energ DENC   =      -177.66053578
  -exchange      EXHF   =         0.00000000
  -V(xc)+E(xc)   XCENC  =        54.95693886
  PAW double counting   =      5086.74163845    -5063.52291986
  entropy T*S    EENTRO =         0.00000000
  eigenvalues    EBANDS =      -207.39575571
  atomic energy  EATOM  =      2086.78124273
  Solvation  Ediel_sol  =         0.00000000
  ---------------------------------------------------
  free energy    TOTEN  =       -17.09191782 eV

  energy without entropy =      -17.09191782  energy(sigma->0) =      -17.09191782


--------------------------------------------------------------------------------------------------------




--------------------------------------- Iteration      1(  12)  ---------------------------------------


    POTLOK:  cpu time      1.0069: real time      0.0818
    SETDIJ:  cpu time      1.1364: real time      0.2486
    EDDIAG:  cpu time     24.0763: real time      1.3622
  RMM-DIIS:  cpu time     44.9666: real time      2.5202
    ORTHCH:  cpu time      0.6931: real time      0.0354
 BZINTS: Fermi energy:    8.377134;   22.000000 electrons
         Band energy:-0.207403E+03;  BLOECHL correction:   -0.335487
       DOS:  cpu time      0.1179: real time      0.0102
    --------------------------------------------
      LOOP:  cpu time     71.9973: real time      4.2584

 eigenvalue-minimisations  :   842
 total energy-change (2. order) :-0.1136887E-04  (-0.1747335E-04)
 number of electron      21.9999995 magnetization      -0.0003451
 augmentation part        8.1241595 magnetization       0.0002108

 Free energy of the ion-electron system (eV)
  ---------------------------------------------------
  alpha Z        PSCENC =       352.88920226
  Ewald energy   TEWEN  =     -2149.88172878
  -Hartree energ DENC   =      -177.67551936
  -exchange      EXHF   =         0.00000000
  -V(xc)+E(xc)   XCENC  =        54.95769715
  PAW double counting   =      5082.23022263    -5058.99017882
  entropy T*S    EENTRO =         0.00000000
  eigenvalues    EBANDS =      -207.40286700
  atomic energy  EATOM  =      2086.78124273
  Solvation  Ediel_sol  =         0.00000000
  ---------------------------------------------------
  free energy    TOTEN  =       -17.09192919 eV

  energy without entropy =      -17.09192919  energy(sigma->0) =      -17.09192919


--------------------------------------------------------------------------------------------------------




 average (electrostatic) potential at core
  the test charge radii are     1.2125
  (the norm of the test charge is              1.0000)
       1 -31.1014       2 -31.1014



 E-fermi :   8.3771     XC(G=0): -14.2731     alpha+bet :-18.2358

 Fermi energy:         8.3771336739

 spin component 1

 k-point     1 :       0.0000    0.0000    0.0000
  band No.  band energies     occupation 
      1     -22.7154      1.00000
      2     -22.7154      1.00000
      3     -22.7154      1.00000
      4     -20.3352      1.00000
      5     -20.3352      1.00000
      6     -20.3352      1.00000
      7       1.7664      1.00000
      8       1.7664      1.00000
      9       1.9827      1.00000
     10       8.1043      1.00000
     11       8.1043      1.00000
     12       8.1043      0.46521
     13      12.2918      0.00000
     14      12.2918      0.00000
     15      16.3126      0.00000
     16      16.3126      0.00000

 k-point     2 :       0.1429    0.0000    0.0000
  band No.  band energies     occupation 
      1     -22.7578      1.00000
      2     -22.6002      1.00000
      3     -22.6002      1.00000
      4     -20.6384      1.00000
      5     -20.4539      1.00000
      6     -20.4539      1.00000
      7       2.0842      1.00000
      8       2.4520      1.00000
      9       2.6216      1.00000
     10       8.0661      1.00000
     11       8.0661      1.00000
     12       8.3908      0.07530
     13      11.2446      0.00000
     14      12.6702      0.00000
     15      14.5220      0.00000
     16      14.5221      0.00000

 k-point     3 :       0.2857    0.0000    0.0000
  band No.  band energies     occupation 
      1     -22.7848      1.00000
      2     -22.2753      1.00000
      3     -22.2753      1.00000
      4     -21.3532      1.00000
      5     -20.7873      1.00000
      6     -20.7873      1.00000
      7       3.0283      1.00000
      8       4.1570      1.00000
      9       4.1769      1.00000
     10       8.1567      1.00000
     11       8.1567      0.98290
     12       8.9960     -0.02006
     13       9.2329      0.00000
     14      11.9900      0.00000
     15      11.9900      0.00000
     16      13.7017      0.00000

 k-point     4 :       0.4286    0.0000    0.0000
  band No.  band energies     occupation 
      1     -22.6021      1.00000
      2     -22.1000      1.00000
      3     -21.8009      1.00000
      4     -21.8009      1.00000
      5     -21.2690      1.00000
      6     -21.2690      1.00000
      7       4.5647      1.00000
      8       5.6692      1.00000
      9       5.7331      1.00000
     10       6.6149      1.00000
     11       8.7312      0.70040
     12       8.7312     -0.08254
     13       9.9993      0.00000
     14       9.9993      0.00000
     15      10.5717      0.00000
     16      12.2844      0.00000

 k-point     5 :       0.1429    0.1429    0.0000
  band No.  band energies     occupation 
      1     -22.9713      1.00000
      2     -22.4928      1.00000
      3     -22.3251      1.00000
      4     -21.1175      1.00000
      5     -20.5563      1.00000
      6     -20.3488      1.00000
      7       2.5387      1.00000
      8       2.9637      1.00000
      9       3.1188      1.00000
     10       7.3576      1.00000
     11       7.9083      1.00000
     12       9.3887     -0.03556
     13      11.4583      0.00000
     14      12.3257      0.00000
     15      12.5160      0.00000
     16      13.0901      0.00000

 k-point     6 :       0.2857    0.1429    0.0000
  band No.  band energies     occupation 
      1     -23.1303      1.00000
      2     -22.1916      1.00000
      3     -21.9049      1.00000
      4     -21.8894      1.00000
      5     -20.8471      1.00000
      6     -20.5135      1.00000
      7       3.3955      1.00000
      8       4.1536      1.00000
      9       4.5917      1.00000
     10       6.9802      1.00000
     11       7.8001      0.99983
     12      10.1487     -0.15158
     13      10.3845      0.00000
     14      10.7617      0.00000
     15      11.1035      0.00000
     16      13.3086      0.00000

 k-point     7 :       0.4286    0.1429    0.0000
  band No.  band energies     occupation 
      1     -23.0372      1.00000
      2     -22.6031      1.00000
      3     -21.7560      1.00000
      4     -21.4081      1.00000
      5     -21.2750      1.00000
      6     -20.9074      1.00000
      7       4.4844      1.00000
      8       4.8567      1.00000
      9       6.0798      1.00000
     10       7.0790      1.00000
     11       7.2735      1.02334
     12       8.3395      0.42007
     13      10.1039      0.00000
     14      10.2188      0.00000
     15      12.3832      0.00000
     16      14.1825      0.00000

 k-point     8 :       0.2857    0.2857    0.0000
  band No.  band energies     occupation 
      1     -23.5074      1.00000
      2     -22.6846      1.00000
      3     -21.9608      1.00000
      4     -21.3824      1.00000
      5     -21.0246      1.00000
      6     -20.3803      1.00000
      7       3.6962      1.00000
      8       3.7714      1.00000
      9       5.9938      1.00000
     10       6.2184      1.00000
     11       7.9794      0.93402
     12       8.8585      0.03531
     13      10.2074      0.00000
     14      11.9183      0.00000
     15      12.7247      0.00000
     16      12.8260      0.00000

 k-point     9 :       0.4286    0.2857    0.0000
  band No.  band energies     occupation 
      1     -23.6045      1.00000
      2     -23.3178      1.00000
      3     -21.6393      1.00000
      4     -21.3035      1.00000
      5     -20.8984      1.00000
      6     -20.5327      1.00000
      7       3.5024      1.00000
      8       3.5978      1.00000
      9       5.7904      1.00000
     10       6.4658      1.00000
     11       8.0790      0.76487
     12       9.2712     -0.08282
     13      10.8963      0.00000
     14      11.9981      0.00000
     15      14.2234      0.00000
     16      14.8422      0.00000

 k-point    10 :       0.4286    0.4286    0.0000
  band No.  band energies     occupation 
      1     -23.9046      1.00000
      2     -23.8048      1.00000
      3     -21.4961      1.00000
      4     -21.3754      1.00000
      5     -20.5413      1.00000
      6     -20.4067      1.00000
      7       2.7722      1.00000
      8       2.8474      1.00000
      9       5.0989      1.00000
     10       5.3298      1.00000
     11      10.7735     -0.15114
     12      11.8916     -0.01677
     13      11.9762      0.00000
     14      12.9994      0.00000
     15      13.4998      0.00000
     16      15.8158      0.00000

 k-point    11 :       0.1429    0.1429    0.1429
  band No.  band energies     occupation 
      1     -22.8466      1.00000
      2     -22.8466      1.00000
      3     -21.9484      1.00000
      4     -21.4898      1.00000
      5     -20.4823      1.00000
      6     -20.4823      1.00000
      7       3.2229      1.00000
      8       3.2229      1.00000
      9       3.6213      1.00000
     10       7.1609      1.00000
     11       7.1609      1.00000
     12      10.2555     -0.10134
     13      10.5092      0.00000
     14      11.9187      0.00000
     15      11.9187      0.00000
     16      14.8124      0.00000

 k-point    12 :       0.2857    0.1429    0.1429
  band No.  band energies     occupation 
      1     -23.1417      1.00000
      2     -22.4939      1.00000
      3     -22.1859      1.00000
      4     -21.5088      1.00000
      5     -20.8554      1.00000
      6     -20.5244      1.00000
      7       3.9630      1.00000
      8       4.4859      1.00000
      9       4.8292      1.00000
     10       6.7345      1.00000
     11       6.9926      1.00481
     12       8.2654      0.41756
     13      10.9255      0.00000
     14      12.2322      0.00000
     15      12.4433      0.00000
     16      13.1031      0.00000

 k-point    13 :       0.4286    0.1429    0.1429
  band No.  band energies     occupation 
      1     -23.1593      1.00000
      2     -22.8181      1.00000
      3     -21.9759      1.00000
      4     -21.3905      1.00000
      5     -21.0926      1.00000
      6     -20.7445      1.00000
      7       4.9078      1.00000
      8       5.0363      1.00000
      9       5.4221      1.00000
     10       6.0814      1.00000
     11       7.9158      0.99809
     12       7.9991      0.81939
     13      10.2544      0.00000
     14      10.7840      0.00000
     15      13.5315      0.00000
     16      14.1135      0.00000

 k-point    14 :       0.2857    0.2857    0.1429
  band No.  band energies     occupation 
      1     -23.3644      1.00000
      2     -22.7832      1.00000
      3     -22.3913      1.00000
      4     -21.0873      1.00000
      5     -21.0418      1.00000
      6     -20.5471      1.00000
      7       4.3931      1.00000
      8       4.4591      1.00000
      9       5.8926      1.00000
     10       6.2836      1.00000
     11       6.6633      1.01630
     12       7.7210      0.83976
     13      11.7568      0.00000
     14      12.0185      0.00000
     15      12.8048      0.00000
     16      14.4599      0.00000

 k-point    15 :       0.4286    0.2857    0.1429
  band No.  band energies     occupation 
      1     -23.4993      1.00000
      2     -23.2948      1.00000
      3     -21.9550      1.00000
      4     -21.4509      1.00000
      5     -20.7870      1.00000
      6     -20.6152      1.00000
      7       4.0545      1.00000
      8       4.1243      1.00000
      9       5.7038      1.00000
     10       5.9552      1.00000
     11       8.2397      0.75887
     12       8.8436      0.06347
     13      11.4803      0.00000
     14      11.8295      0.00000
     15      13.8208      0.00000
     16      14.8127      0.00000

 k-point    16 :       0.4286    0.4286    0.1429
  band No.  band energies     occupation 
      1     -23.7492      1.00000
      2     -23.6787      1.00000
      3     -21.7287      1.00000
      4     -21.5274      1.00000
      5     -20.6421      1.00000
      6     -20.6001      1.00000
      7       3.4602      1.00000
      8       3.4651      1.00000
      9       5.1645      1.00000
     10       5.3781      1.00000
     11      10.3314     -0.15413
     12      10.9391     -0.05484
     13      12.3487      0.00000
     14      12.8267      0.00000
     15      13.5721      0.00000
     16      14.6245      0.00000

 k-point    17 :       0.2857    0.2857    0.2857
  band No.  band energies     occupation 
      1     -23.0474      1.00000
      2     -22.9574      1.00000
      3     -22.9574      1.00000
      4     -21.0081      1.00000
      5     -21.0081      1.00000
      6     -20.8336      1.00000
      7       5.0946      1.00000
      8       5.7960      1.00000
      9       5.7960      1.00000
     10       6.3693      1.00000
     11       6.3693      1.06631
     12       6.4459      1.14931
     13      12.7917      0.00000
     14      12.7917      0.00000
     15      13.4525      0.00000
     16      13.4525      0.00000

 k-point    18 :       0.4286    0.2857    0.2857
  band No.  band energies     occupation 
      1     -23.2935      1.00000
      2     -23.2914      1.00000
      3     -22.3524      1.00000
      4     -21.6568      1.00000
      5     -20.8880      1.00000
      6     -20.7891      1.00000
      7       4.5351      1.00000
      8       4.8334      1.00000
      9       5.9473      1.00000
     10       6.2453      1.00000
     11       8.0285      0.80410
     12       8.1137      0.61243
     13      12.5523      0.00000
     14      12.5567      0.00000
     15      13.7007      0.00000
     16      13.9534      0.00000

 k-point    19 :       0.4286    0.4286    0.2857
  band No.  band energies     occupation 
      1     -23.3462      1.00000
      2     -23.3052      1.00000
      3     -22.2109      1.00000
      4     -21.8152      1.00000
      5     -21.1298      1.00000
      6     -20.9834      1.00000
      7       4.6202      1.00000
      8       5.1438      1.00000
      9       5.4800      1.00000
     10       6.0745      1.00000
     11       9.0097      0.07538
     12       9.0301      0.00682
     13      13.1483      0.00000
     14      13.2635      0.00000
     15      13.7082      0.00000
     16      13.8925      0.00000

 k-point    20 :       0.4286    0.4286    0.4286
  band No.  band energies     occupation 
      1     -22.9649      1.00000
      2     -22.6394      1.00000
      3     -22.6394      1.00000
      4     -21.8642      1.00000
      5     -21.8642      1.00000
      6     -21.4864      1.00000
      7       5.4622      1.00000
      8       6.2343      1.00000
      9       6.2343      1.00000
     10       7.4779      1.00000
     11       7.4779      1.02866
     12       7.8581      0.89178
     13      13.7807      0.00000
     14      13.7807      0.00000
     15      13.7836      0.00000
     16      13.7836      0.00000
 Fermi energy:         8.3771336739

 spin component 2

 k-point     1 :       0.0000    0.0000    0.0000
  band No.  band energies     occupation 
      1     -22.7154      1.00000
      2     -22.7154      1.00000
      3     -22.7154      1.00000
      4     -20.3353      1.00000
      5     -20.3353      1.00000
      6     -20.3353      1.00000
      7       1.7664      1.00000
      8       1.7664      1.00000
      9       1.9824      1.00000
     10       8.1040      1.00000
     11       8.1040      1.00000
     12       8.1040      0.46642
     13      12.2920      0.00000
     14      12.2920      0.00000
     15      16.3125      0.00000
     16      16.3125      0.00000

 k-point     2 :       0.1429    0.0000    0.0000
  band No.  band energies     occupation 
      1     -22.7579      1.00000
      2     -22.6002      1.00000
      3     -22.6002      1.00000
      4     -20.6384      1.00000
      5     -20.4540      1.00000
      6     -20.4540      1.00000
      7       2.0842      1.00000
      8       2.4520      1.00000
      9       2.6214      1.00000
     10       8.0658      1.00000
     11       8.0658      1.00000
     12       8.3905      0.07563
     13      11.2447      0.00000
     14      12.6704      0.00000
     15      14.5218      0.00000
     16      14.5218      0.00000

 k-point     3 :       0.2857    0.0000    0.0000
  band No.  band energies     occupation 
      1     -22.7848      1.00000
      2     -22.2754      1.00000
      3     -22.2754      1.00000
      4     -21.3532      1.00000
      5     -20.7873      1.00000
      6     -20.7873      1.00000
      7       3.0283      1.00000
      8       4.1570      1.00000
      9       4.1767      1.00000
     10       8.1564      1.00000
     11       8.1564      0.98295
     12       8.9961     -0.02009
     13       9.2325      0.00000
     14      11.9897      0.00000
     15      11.9897      0.00000
     16      13.7022      0.00000

 k-point     4 :       0.4286    0.0000    0.0000
  band No.  band energies     occupation 
      1     -22.6021      1.00000
      2     -22.1001      1.00000
      3     -21.8010      1.00000
      4     -21.8010      1.00000
      5     -21.2691      1.00000
      6     -21.2691      1.00000
      7       4.5647      1.00000
      8       5.6690      1.00000
      9       5.7331      1.00000
     10       6.6150      1.00000
     11       8.7309      0.70085
     12       8.7309     -0.08194
     13       9.9990      0.00000
     14       9.9990      0.00000
     15      10.5714      0.00000
     16      12.2841      0.00000

 k-point     5 :       0.1429    0.1429    0.0000
  band No.  band energies     occupation 
      1     -22.9714      1.00000
      2     -22.4929      1.00000
      3     -22.3252      1.00000
      4     -21.1175      1.00000
      5     -20.5564      1.00000
      6     -20.3488      1.00000
      7       2.5387      1.00000
      8       2.9637      1.00000
      9       3.1185      1.00000
     10       7.3572      1.00000
     11       7.9080      1.00000
     12       9.3883     -0.03564
     13      11.4584      0.00000
     14      12.3259      0.00000
     15      12.5157      0.00000
     16      13.0899      0.00000

 k-point     6 :       0.2857    0.1429    0.0000
  band No.  band energies     occupation 
      1     -23.1303      1.00000
      2     -22.1916      1.00000
      3     -21.9049      1.00000
      4     -21.8894      1.00000
      5     -20.8472      1.00000
      6     -20.5136      1.00000
      7       3.3955      1.00000
      8       4.1534      1.00000
      9       4.5917      1.00000
     10       6.9799      1.00000
     11       7.7999      0.99983
     12      10.1484     -0.15168
     13      10.3845      0.00000
     14      10.7614      0.00000
     15      11.1032      0.00000
     16      13.3088      0.00000

 k-point     7 :       0.4286    0.1429    0.0000
  band No.  band energies     occupation 
      1     -23.0373      1.00000
      2     -22.6032      1.00000
      3     -21.7561      1.00000
      4     -21.4082      1.00000
      5     -21.2750      1.00000
      6     -20.9074      1.00000
      7       4.4844      1.00000
      8       4.8565      1.00000
      9       6.0797      1.00000
     10       7.0790      1.00000
     11       7.2731      1.02332
     12       8.3392      0.42069
     13      10.1037      0.00000
     14      10.2186      0.00000
     15      12.3829      0.00000
     16      14.1834      0.00000

 k-point     8 :       0.2857    0.2857    0.0000
  band No.  band energies     occupation 
      1     -23.5075      1.00000
      2     -22.6847      1.00000
      3     -21.9609      1.00000
      4     -21.3824      1.00000
      5     -21.0246      1.00000
      6     -20.3804      1.00000
      7       3.6961      1.00000
      8       3.7711      1.00000
      9       5.9934      1.00000
     10       6.2184      1.00000
     11       7.9791      0.93405
     12       8.8583      0.03541
     13      10.2072      0.00000
     14      11.9183      0.00000
     15      12.7248      0.00000
     16      12.8257      0.00000

 k-point     9 :       0.4286    0.2857    0.0000
  band No.  band energies     occupation 
      1     -23.6046      1.00000
      2     -23.3178      1.00000
      3     -21.6394      1.00000
      4     -21.3036      1.00000
      5     -20.8984      1.00000
      6     -20.5328      1.00000
      7       3.5022      1.00000
      8       3.5976      1.00000
      9       5.7901      1.00000
     10       6.4654      1.00000
     11       8.0790      0.76488
     12       9.2711     -0.08282
     13      10.8962      0.00000
     14      11.9980      0.00000
     15      14.2235      0.00000
     16      14.8419      0.00000

 k-point    10 :       0.4286    0.4286    0.0000
  band No.  band energies     occupation 
      1     -23.9047      1.00000
      2     -23.8049      1.00000
      3     -21.4962      1.00000
      4     -21.3754      1.00000
      5     -20.5414      1.00000
      6     -20.4067      1.00000
      7       2.7720      1.00000
      8       2.8472      1.00000
      9       5.0985      1.00000
     10       5.3295      1.00000
     11      10.7735     -0.15113
     12      11.8915     -0.01678
     13      11.9762      0.00000
     14      12.9993      0.00000
     15      13.5000      0.00000
     16      15.8157      0.00000

 k-point    11 :       0.1429    0.1429    0.1429
  band No.  band energies     occupation 
      1     -22.8467      1.00000
      2     -22.8467      1.00000
      3     -21.9485      1.00000
      4     -21.4898      1.00000
      5     -20.4823      1.00000
      6     -20.4823      1.00000
      7       3.2229      1.00000
      8       3.2229      1.00000
      9       3.6210      1.00000
     10       7.1606      1.00000
     11       7.1606      1.00000
     12      10.2552     -0.10138
     13      10.5089      0.00000
     14      11.9189      0.00000
     15      11.9189      0.00000
     16      14.8122      0.00000

 k-point    12 :       0.2857    0.1429    0.1429
  band No.  band energies     occupation 
      1     -23.1417      1.00000
      2     -22.4940      1.00000
      3     -22.1860      1.00000
      4     -21.5089      1.00000
      5     -20.8555      1.00000
      6     -20.5245      1.00000
      7       3.9630      1.00000
      8       4.4856      1.00000
      9       4.8292      1.00000
     10       6.7343      1.00000
     11       6.9923      1.00480
     12       8.2651      0.41785
     13      10.9255      0.00000
     14      12.2319      0.00000
     15      12.4430      0.00000
     16      13.1032      0.00000

 k-point    13 :       0.4286    0.1429    0.1429
  band No.  band energies     occupation 
      1     -23.1594      1.00000
      2     -22.8182      1.00000
      3     -21.9759      1.00000
      4     -21.3905      1.00000
      5     -21.0926      1.00000
      6     -20.7446      1.00000
      7       4.9075      1.00000
      8       5.0363      1.00000
      9       5.4220      1.00000
     10       6.0813      1.00000
     11       7.9155      0.99810
     12       7.9989      0.81963
     13      10.2543      0.00000
     14      10.7838      0.00000
     15      13.5313      0.00000
     16      14.1134      0.00000

 k-point    14 :       0.2857    0.2857    0.1429
  band No.  band energies     occupation 
      1     -23.3645      1.00000
      2     -22.7833      1.00000
      3     -22.3914      1.00000
      4     -21.0874      1.00000
      5     -21.0419      1.00000
      6     -20.5472      1.00000
      7       4.3930      1.00000
      8       4.4589      1.00000
      9       5.8923      1.00000
     10       6.2836      1.00000
     11       6.6630      1.01630
     12       7.7208      0.83994
     13      11.7566      0.00000
     14      12.0185      0.00000
     15      12.8050      0.00000
     16      14.4596      0.00000

 k-point    15 :       0.4286    0.2857    0.1429
  band No.  band energies     occupation 
      1     -23.4994      1.00000
      2     -23.2949      1.00000
      3     -21.9551      1.00000
      4     -21.4509      1.00000
      5     -20.7870      1.00000
      6     -20.6152      1.00000
      7       4.0543      1.00000
      8       4.1241      1.00000
      9       5.7035      1.00000
     10       5.9549      1.00000
     11       8.2397      0.75892
     12       8.8434      0.06362
     13      11.4802      0.00000
     14      11.8294      0.00000
     15      13.8209      0.00000
     16      14.8126      0.00000

 k-point    16 :       0.4286    0.4286    0.1429
  band No.  band energies     occupation 
      1     -23.7493      1.00000
      2     -23.6788      1.00000
      3     -21.7288      1.00000
      4     -21.5274      1.00000
      5     -20.6422      1.00000
      6     -20.6002      1.00000
      7       3.4600      1.00000
      8       3.4649      1.00000
      9       5.1642      1.00000
     10       5.3778      1.00000
     11      10.3313     -0.15412
     12      10.9389     -0.05486
     13      12.3487      0.00000
     14      12.8267      0.00000
     15      13.5723      0.00000
     16      14.6245      0.00000

 k-point    17 :       0.2857    0.2857    0.2857
  band No.  band energies     occupation 
      1     -23.0475      1.00000
      2     -22.9575      1.00000
      3     -22.9575      1.00000
      4     -21.0081      1.00000
      5     -21.0081      1.00000
      6     -20.8337      1.00000
      7       5.0943      1.00000
      8       5.7957      1.00000
      9       5.7957      1.00000
     10       6.3692      1.00000
     11       6.3692      1.06629
     12       6.4456      1.14927
     13      12.7918      0.00000
     14      12.7918      0.00000
     15      13.4524      0.00000
     16      13.4524      0.00000

 k-point    18 :       0.4286    0.2857    0.2857
  band No.  band energies     occupation 
      1     -23.2936      1.00000
      2     -23.2915      1.00000
      3     -22.3525      1.00000
      4     -21.6569      1.00000
      5     -20.8880      1.00000
      6     -20.7891      1.00000
      7       4.5348      1.00000
      8       4.8331      1.00000
      9       5.9471      1.00000
     10       6.2451      1.00000
     11       8.0282      0.80428
     12       8.1135      0.61263
     13      12.5523      0.00000
     14      12.5566      0.00000
     15      13.7008      0.00000
     16      13.9534      0.00000

 k-point    19 :       0.4286    0.4286    0.2857
  band No.  band energies     occupation 
      1     -23.3463      1.00000
      2     -23.3052      1.00000
      3     -22.2110      1.00000
      4     -21.8153      1.00000
      5     -21.1299      1.00000
      6     -20.9835      1.00000
      7       4.6200      1.00000
      8       5.1435      1.00000
      9       5.4796      1.00000
     10       6.0743      1.00000
     11       9.0095      0.07555
     12       9.0300      0.00691
     13      13.1484      0.00000
     14      13.2636      0.00000
     15      13.7084      0.00000
     16      13.8926      0.00000

 k-point    20 :       0.4286    0.4286    0.4286
  band No.  band energies     occupation 
      1     -22.9649      1.00000
      2     -22.6395      1.00000
      3     -22.6395      1.00000
      4     -21.8643      1.00000
      5     -21.8643      1.00000
      6     -21.4864      1.00000
      7       5.4619      1.00000
      8       6.2340      1.00000
      9       6.2340      1.00000
     10       7.4777      1.00000
     11       7.4777      1.02878
     12       7.8578      0.89199
     13      13.7809      0.00000
     14      13.7809      0.00000
     15      13.7838      0.00000
     16      13.7838      0.00000


--------------------------------------------------------------------------------------------------------


 soft charge-density along one line, spin component           1
         0         1         2         3         4         5         6         7         8         9
 total charge-density along one line

 soft charge-density along one line, spin component           2
         0         1         2         3         4         5         6         7         8         9
 total charge-density along one line

 pseudopotential strength for first ion, spin component:           1
-25.893   0.000   0.000   4.546  -0.000  -0.000  -0.000   0.000
  0.000 -25.893   0.000  -0.000   4.546  -0.000  -0.000   0.000
  0.000   0.000 -25.893  -0.000  -0.000   4.546   0.000  -0.000
  4.546  -0.000  -0.000   4.817   0.000   0.000   0.000  -0.000
 -0.000   4.546  -0.000   0.000   4.817   0.000  -0.000  -0.000
 -0.000  -0.000   4.546   0.000   0.000   4.817  -0.000  -0.000
 -0.000  -0.000   0.000   0.000  -0.000  -0.000  -5.465   0.000
  0.000   0.000  -0.000  -0.000  -0.000  -0.000   0.000  -5.465
 -0.000   0.000   0.000   0.000  -0.000  -0.000  -0.000  -0.000
 -0.000  -0.000   0.000  -0.000   0.000  -0.000   0.000   0.000
 -0.000   0.000   0.000   0.000  -0.000  -0.000  -0.000  -0.000
 -0.000  -0.000   0.000   0.000  -0.000  -0.000  -6.147   0.000
  0.000   0.000  -0.000  -0.000  -0.000  -0.000   0.000  -6.147
 -0.000   0.000   0.000   0.000  -0.000  -0.000  -0.000  -0.000
 -0.000  -0.000   0.000  -0.000   0.000  -0.000   0.000   0.000
 -0.000   0.000   0.000   0.000  -0.000  -0.000  -0.000  -0.000
 -0.000  -0.000   0.000   0.000   0.000   0.000   0.000  -0.000
  0.000   0.000  -0.000   0.000   0.000  -0.000  -0.000   0.000
 pseudopotential strength for first ion, spin component:           2
-25.893   0.000   0.000   4.546  -0.000  -0.000  -0.000   0.000
  0.000 -25.893   0.000  -0.000   4.546  -0.000  -0.000   0.000
  0.000   0.000 -25.893  -0.000  -0.000   4.546   0.000  -0.000
  4.546  -0.000  -0.000   4.817   0.000   0.000   0.000  -0.000
 -0.000   4.546  -0.000   0.000   4.817   0.000   0.000  -0.000
 -0.000  -0.000   4.546   0.000   0.000   4.817  -0.000   0.000
 -0.000  -0.000   0.000   0.000   0.000  -0.000  -5.465   0.000
  0.000   0.000  -0.000  -0.000  -0.000   0.000   0.000  -5.465
 -0.000   0.000   0.000   0.000  -0.000  -0.000  -0.000  -0.000
 -0.000  -0.000   0.000   0.000   0.000  -0.000   0.000   0.000
 -0.000   0.000   0.000   0.000  -0.000  -0.000  -0.000  -0.000
 -0.000  -0.000   0.000   0.000   0.000  -0.000  -6.147   0.000
  0.000   0.000  -0.000  -0.000  -0.000   0.000   0.000  -6.147
 -0.000   0.000   0.000   0.000  -0.000  -0.000  -0.000  -0.000
 -0.000  -0.000   0.000   0.000   0.000  -0.000   0.000   0.000
 -0.000   0.000   0.000   0.000  -0.000  -0.000  -0.000  -0.000
 -0.000  -0.000   0.000   0.000   0.000   0.000  -0.000  -0.000
  0.000   0.000  -0.000   0.000   0.000  -0.000   0.000   0.000
 total augmentation occupancy for first ion, spin component:           1
  2.007   0.000   0.000   0.041   0.000   0.000   0.000   0.000   0.000   0.000   0.000  -0.000  -0.000   0.000   0.000   0.000
  0.000   2.007   0.000   0.000   0.041   0.000   0.000   0.000  -0.000   0.000   0.000   0.000   0.000   0.000  -0.000   0.000
  0.000   0.000   2.007   0.000   0.000   0.041   0.000   0.000   0.000   0.000  -0.000  -0.000  -0.000   0.000   0.000  -0.000
  0.041   0.000   0.000   0.289   0.000   0.000   0.000  -0.000  -0.000   0.000  -0.000   0.000  -0.000   0.000   0.000   0.000
  0.000   0.041   0.000   0.000   0.289   0.000   0.000   0.000   0.000   0.000   0.000   0.000   0.000   0.000  -0.000   0.000
  0.000   0.000   0.041   0.000   0.000   0.289   0.000   0.000   0.000  -0.000   0.000   0.000   0.000   0.000  -0.000   0.000
 -0.000   0.000  -0.000   0.000   0.000  -0.000  12.199   0.000  -0.000   0.000   0.000  -7.774  -0.000   0.000  -0.000  -0.000
  0.000  -0.000  -0.000   0.000  -0.000   0.000   0.000  12.199   0.000   0.000  -0.000  -0.000  -7.774  -0.000  -0.000   0.000
 -0.000  -0.000   0.000   0.000   0.000   0.000  -0.000   0.000  11.859   0.000   0.000   0.000  -0.000  -7.779  -0.000   0.000
 -0.000  -0.000   0.000   0.000   0.000   0.000   0.000   0.000   0.000  12.199   0.000  -0.000  -0.000  -0.000  -7.774  -0.000
  0.000   0.000  -0.000   0.000   0.000  -0.000   0.000  -0.000   0.000   0.000  11.859   0.000   0.000  -0.000  -0.000  -7.779
  0.000   0.000   0.000  -0.000  -0.000  -0.000  -7.774  -0.000   0.000  -0.000  -0.000   5.045   0.000  -0.000   0.000  -0.000
 -0.000   0.000   0.000   0.000   0.000  -0.000  -0.000  -7.774  -0.000  -0.000   0.000   0.000   5.045   0.000   0.000  -0.000
  0.000   0.000   0.000  -0.000   0.000   0.000   0.000  -0.000  -7.779  -0.000   0.000  -0.000   0.000   5.139   0.000   0.000
 -0.000  -0.000  -0.000   0.000  -0.000   0.000  -0.000  -0.000  -0.000  -7.774  -0.000   0.000   0.000   0.000   5.045   0.000
  0.000   0.000   0.000  -0.000  -0.000   0.000   0.000   0.000  -0.000  -0.000  -7.779  -0.000  -0.000   0.000   0.000   5.139
 -0.000   0.000  -0.000  -0.000   0.000  -0.000   0.000   0.000   0.000  -0.000   0.000  -0.000   0.000   0.000  -0.000   0.000
  0.000   0.000  -0.000   0.000   0.000  -0.000  -0.000  -0.000   0.000  -0.000   0.000   0.000  -0.000   0.000   0.000   0.000
 total augmentation occupancy for first ion, spin component:           2
 -0.000  -0.000  -0.000  -0.000  -0.000  -0.000  -0.000   0.000   0.000   0.000   0.000  -0.000   0.000   0.000  -0.000  -0.000
 -0.000  -0.000  -0.000  -0.000  -0.000  -0.000  -0.000   0.000  -0.000   0.000   0.000   0.000   0.000   0.000  -0.000  -0.000
 -0.000  -0.000  -0.000  -0.000  -0.000  -0.000  -0.000   0.000  -0.000  -0.000   0.000  -0.000   0.000   0.000   0.000   0.000
 -0.000  -0.000  -0.000  -0.000  -0.000  -0.000   0.000   0.000  -0.000   0.000   0.000  -0.000  -0.000  -0.000   0.000   0.000
 -0.000  -0.000  -0.000  -0.000  -0.000  -0.000   0.000   0.000   0.000   0.000   0.000  -0.000   0.000   0.000  -0.000   0.000
 -0.000  -0.000  -0.000  -0.000  -0.000  -0.000  -0.000   0.000   0.000   0.000   0.000   0.000  -0.000   0.000   0.000   0.000
 -0.000  -0.000   0.000  -0.000   0.000  -0.000  -0.005  -0.000   0.000  -0.000   0.000   0.003   0.000  -0.000   0.000  -0.000
  0.000   0.000   0.000  -0.000  -0.000   0.000  -0.000  -0.005   0.000  -0.000   0.000   0.000   0.003  -0.000   0.000  -0.000
  0.000  -0.000  -0.000  -0.000   0.000  -0.000   0.000   0.000  -0.011   0.000  -0.000  -0.000  -0.000   0.008  -0.000   0.000
  0.000   0.000  -0.000   0.000  -0.000   0.000  -0.000  -0.000   0.000  -0.005  -0.000   0.000   0.000  -0.000   0.003   0.000
 -0.000  -0.000   0.000   0.000   0.000  -0.000   0.000   0.000  -0.000  -0.000  -0.011  -0.000  -0.000  -0.000   0.000   0.008
  0.000   0.000   0.000  -0.000   0.000  -0.000   0.003   0.000  -0.000   0.000  -0.000  -0.002  -0.000   0.000  -0.000   0.000
  0.000  -0.000  -0.000   0.000   0.000   0.000   0.000   0.003  -0.000   0.000  -0.000  -0.000  -0.002   0.000  -0.000   0.000
 -0.000  -0.000  -0.000  -0.000   0.000  -0.000  -0.000  -0.000   0.008  -0.000   0.000   0.000   0.000  -0.006   0.000  -0.000
  0.000   0.000  -0.000   0.000  -0.000   0.000   0.000   0.000  -0.000   0.003   0.000  -0.000  -0.000   0.000  -0.002  -0.000
 -0.000  -0.000   0.000  -0.000  -0.000   0.000  -0.000  -0.000  -0.000   0.000   0.008   0.000   0.000   0.000  -0.000  -0.006
  0.000   0.000   0.000   0.000   0.000   0.000  -0.000   0.000   0.000   0.000   0.000  -0.000  -0.000  -0.000  -0.000  -0.000
 -0.000   0.000  -0.000   0.000   0.000   0.000   0.000  -0.000  -0.000   0.000  -0.000  -0.000  -0.000   0.000  -0.000  -0.000


------------------------ aborting loop because EDIFF is reached ----------------------------------------





 total charge

# of ion       s       p       d       tot
------------------------------------------
    1        0.553   6.437   3.961  10.950
    2        0.553   6.437   3.961  10.950
--------------------------------------------------
tot          1.105  12.873   7.921  21.900



 magnetization (x)

# of ion       s       p       d       tot
------------------------------------------
    1       -0.000  -0.000   0.000   0.000
    2       -0.000  -0.000   0.000   0.000
--------------------------------------------------
tot         -0.000  -0.000   0.000   0.000

    CHARGE:  cpu time     33.8538: real time      1.5794
    FORLOC:  cpu time      0.0006: real time      0.0006
    FORNL :  cpu time     32.8296: real time      1.8435
    STRESS:  cpu time    122.1039: real time      6.6620
    FORCOR:  cpu time      1.5044: real time      0.1040
    FORHAR:  cpu time      0.0357: real time      0.0074
    MIXING:  cpu time      0.1323: real time      0.0014
    OFIELD:  cpu time      0.0000: real time      0.0000

  FORCE on cell =-STRESS in cart. coord.  units (eV):
  Direction    XX          YY          ZZ          XY          YZ          ZX
  --------------------------------------------------------------------------------------
  Alpha Z   352.88920   352.88920   352.88920
  Ewald    -716.62719  -716.62719  -716.62719    -0.00000    -0.00000    -0.00000
  Hartree    59.23272    59.23272    59.23272    -0.00000    -0.00000    -0.00000
  E(xc)     -99.54532   -99.54532   -99.54532    -0.00000    -0.00000     0.00000
  Local     215.21125   215.21125   215.21125    -0.00000    -0.00000    -0.00000
  n-local  -100.58296   -92.67178   -78.86623     1.78855    -1.38618     0.25630
  augment    50.14264    50.14264    50.14264    -0.00000    -0.00000    -0.00000
  Kinetic   234.56154   243.36411   268.90640     6.43315    -0.53129     2.81882
  Fock        0.00000     0.00000     0.00000     0.00000     0.00000     0.00000
  -------------------------------------------------------------------------------------
  Total      19.54034    19.54034    19.54034     0.00000     0.00000     0.00000
  in kB    1220.20349  1220.20349  1220.20349     0.00000     0.00000     0.00000
  external pressure =     1220.20 kB  Pullay stress =        0.00 kB


 VOLUME and BASIS-vectors are now :
 -----------------------------------------------------------------------------
  energy-cutoff  :      520.00
  volume of cell :       25.66
      direct lattice vectors                 reciprocal lattice vectors
     2.949421167  0.000000000  0.000000000     0.339049577 -0.000000000  0.000000000
     0.000000000  2.949421167  0.000000000    -0.000000000  0.339049577  0.000000000
    -0.000000000 -0.000000000  2.949421167    -0.000000000 -0.000000000  0.339049577

  length of vectors
     2.949421167  2.949421167  2.949421167     0.339049577  0.339049577  0.339049577


 FORCES acting on ions
    electron-ion (+dipol)            ewald-force                    non-local-force                 convergence-correction
 -----------------------------------------------------------------------------------------------
   -.402E-14 0.120E-13 -.303E-13   -.313E-14 -.104E-13 -.409E-14   -.638E-22 -.232E-22 -.204E-22   0.327E-14 0.900E-14 -.106E-13
   0.973E-13 0.121E-12 -.104E-11   0.448E-14 0.761E-14 0.437E-14   0.538E-22 -.334E-22 0.815E-22   0.208E-13 0.290E-13 0.189E-13
 -----------------------------------------------------------------------------------------------
   0.933E-13 0.133E-12 -.107E-11   0.135E-14 -.275E-14 0.282E-15   -.997E-23 -.566E-22 0.610E-22   0.241E-13 0.380E-13 0.823E-14


 POSITION                                       TOTAL-FORCE (eV/Angst)
 -----------------------------------------------------------------------------------
      0.00000      0.00000      0.00000        -0.000000     -0.000000     -0.000000
      1.47471      1.47471      1.47471         0.000000      0.000000      0.000000
 -----------------------------------------------------------------------------------
    total drift:                                0.000000      0.000000     -0.000000


--------------------------------------------------------------------------------------------------------



  FREE ENERGIE OF THE ION-ELECTRON SYSTEM (eV)
  ---------------------------------------------------
  free  energy   TOTEN  =       -17.09192919 eV

  energy  without entropy=      -17.09192919  energy(sigma->0) =      -17.09192919



--------------------------------------------------------------------------------------------------------


    POTLOK:  cpu time      2.6919: real time      0.3611


--------------------------------------------------------------------------------------------------------


     LOOP+:  cpu time   1651.4496: real time     93.7679
 -----------------------------------------------------------------------------
|                                                                             |
|           W    W    AA    RRRRR   N    N  II  N    N   GGGG   !!!           |
|           W    W   A  A   R    R  NN   N  II  NN   N  G    G  !!!           |
|           W    W  A    A  R    R  N N  N  II  N N  N  G       !!!           |
|           W WW W  AAAAAA  RRRRR   N  N N  II  N  N N  G  GGG   !            |
|           WW  WW  A    A  R   R   N   NN  II  N   NN  G    G                |
|           W    W  A    A  R    R  N    N  II  N    N   GGGG   !!!           |
|                                                                             |
|     Tetrahedron method does not include variations of the Fermi             |
|     occupations, so forces and stress will be inaccurate. We suggest        |
|     using a different smearing scheme ISMEAR = 1 or 2 for metals in         |
|     relaxations.                                                            |
|                                                                             |
 -----------------------------------------------------------------------------

    4ORBIT:  cpu time      0.0000: real time      0.0000



 total charge

# of ion       s       p       d       tot
------------------------------------------
    1        0.553   6.437   3.961  10.950
    2        0.553   6.437   3.961  10.950
--------------------------------------------------
tot          1.105  12.873   7.921  21.900



 magnetization (x)

# of ion       s       p       d       tot
------------------------------------------
    1       -0.000  -0.000   0.000   0.000
    2       -0.000  -0.000   0.000   0.000
--------------------------------------------------
tot         -0.000  -0.000   0.000   0.000

 BZINTS: Fermi energy:    8.377134;   22.000000 electrons
         Band energy:-0.207403E+03;  BLOECHL correction:   -0.335487

 total amount of memory used by VASP MPI-rank0    54950. kBytes
=======================================================================

   base      :      30000. kBytes
   nonlr-proj:       3691. kBytes
   fftplans  :       3916. kBytes
   grid      :       9345. kBytes
   one-center:         62. kBytes
   wavefun   :       7936. kBytes

  
  
 General timing and accounting informations for this job:
 ========================================================
  
                  Total CPU time used (sec):     1666.108
                            User time (sec):     1602.839
                          System time (sec):       63.269
                         Elapsed time (sec):       94.954
  
                   Maximum memory used (kb):      259044.
                   Average memory used (kb):          N/A
  
                          Minor page faults:      1706705
                          Major page faults:           86
                 Voluntary context switches:       760519
