 vasp.6.4.1 05Apr23 (build Jul 24 2024 14:19:02) complex                         
 executed on             LinuxGNU date 2024.10.23  13:35:46
 running    1 mpi-ranks, with   24 threads/rank, on    1 nodes
 distrk:  each k-point on    1 cores,    1 groups
 distr:  one band on NCORE=   1 cores,    1 groups


--------------------------------------------------------------------------------------------------------


 INCAR:
   ISTART = 0
   ALGO = Fast
   EDIFF = 0.0001
   ENCUT = 520
   IBRION = -1
   ISIF = 2
   ISMEAR = -5
   ISPIN = 2
   LASPH = True
   LMAXMIX = 6
   LORBIT = 11
   LREAL = Auto
   LWAVE = False
   MAGMOM = 2*0.6
   NELM = 100
   NSW = 0
   PREC = Accurate
   SIGMA = 0.05

 POTCAR:    PAW_PBE Nb_pv 08Apr2002               
 POTCAR:    PAW_PBE Nb_pv 08Apr2002               
   SHA256 =  bac2b60850b34f8515cf56f9feae68b678e347865051052a0e1f5d2c6a691c0a Nb_pv/POTCAR          
   COPYR  = (c) Copyright 08Apr2002 Georg Kresse                                                    
   COPYR  = This file is part of the software VASP. Any use, copying, and all other rights are regul
   COPYR  = If you do not have a valid VASP license, you may not use, copy or distribute this file. 
   VRHFIN =Nb: 4p5s4d                                                                               
   LEXCH  = PE                                                                                      
   EATOM  =  1043.3917 eV,   76.6871 Ry                                                             
                                                                                                    
   TITEL  = PAW_PBE Nb_pv 08Apr2002                                                                 
   LULTRA =        F    use ultrasoft PP ?                                                          
   IUNSCR =        1    unscreen: 0-lin 1-nonlin 2-no                                               
   RPACOR =    2.200    partial core radius                                                         
   POMASS =   92.000; ZVAL   =   11.000    mass and valenz                                          
   RCORE  =    2.750    outmost cutoff radius                                                       
   RWIGS  =    2.840; RWIGS  =    1.503    wigner-seitz radius (au A)                               
   ENMAX  =  208.608; ENMIN  =  156.456 eV                                                          
   RCLOC  =    2.201    cutoff for local pot                                                        
   LCOR   =        T    correct aug charges                                                         
   LPAW   =        T    paw PP                                                                      
   EAUG   =  355.067                                                                                
   DEXC   =    0.000                                                                                
   RMAX   =    2.804    core radius for proj-oper                                                   
   RAUG   =    1.300    factor for augmentation sphere                                              
   RDEP   =    2.776    radius for radial grids                                                     
   RDEPT  =    2.198    core radius for aug-charge                                                  
                                                                                                    
   Atomic configuration                                                                             
   11 entries                                                                                       
     n  l   j            E        occ.                                                              
     1  0  0.50    -18805.2456   2.0000                                                             
     2  0  0.50     -2630.2869   2.0000                                                             
     2  1  1.50     -2348.4045   6.0000                                                             
     3  0  0.50      -438.8756   2.0000                                                             
     3  1  1.50      -346.7587   6.0000                                                             
     3  2  2.50      -196.2559  10.0000                                                             
     4  0  0.50       -58.3859   2.0000                                                             
     4  1  1.50       -34.5141   6.0000                                                             
     4  2  2.50        -3.0408   4.0000                                                             
     5  0  0.50        -3.9816   1.0000                                                             
     4  3  2.50        -1.3606   0.0000                                                             
   Description                                                                                      
     l       E           TYP  RCUT    TYP  RCUT                                                     
     1    -34.5140617     23  2.600                                                                 
     1     -1.3605826     23  2.600                                                                 
     2     -3.0407924     23  2.600                                                                 
     2     -1.4463597     23  2.600                                                                 
     0     -3.9816219     23  2.750                                                                 
     0     20.4087390     23  2.750                                                                 
  local pseudopotential read in
  partial core-charges read in
  partial kinetic energy density read in
  atomic valenz-charges read in
  non local Contribution for L=           1  read in
    real space projection operators read in
  non local Contribution for L=           1  read in
    real space projection operators read in
  non local Contribution for L=           2  read in
    real space projection operators read in
  non local Contribution for L=           2  read in
    real space projection operators read in
  non local Contribution for L=           0  read in
    real space projection operators read in
  non local Contribution for L=           0  read in
    real space projection operators read in
    PAW grid and wavefunctions read in

   number of l-projection  operators is LMAX  =           6
   number of lm-projection operators is LMMAX =          18

 -----------------------------------------------------------------------------
|                                                                             |
|               ----> ADVICE to this user running VASP <----                  |
|                                                                             |
|     You have a (more or less) 'small supercell' and for smaller cells       |
|     it is recommended to use the reciprocal-space projection scheme!        |
|     The real-space optimization is not efficient for small cells and it     |
|     is also less accurate ...                                               |
|     Therefore, set LREAL=.FALSE. in the INCAR file.                         |
|                                                                             |
 -----------------------------------------------------------------------------

 Optimization of the real space projectors (new method)

 maximal supplied QI-value         = 13.61
 optimisation between [QCUT,QGAM] = [ 11.57, 23.27] = [ 37.45,151.59] Ry 
 Optimized for a Real-space Cutoff    1.63 Angstroem

   l    n(q)    QCUT    max X(q) W(low)/X(q) W(high)/X(q)  e(spline) 
   1     11    11.565     4.545    0.12E-04    0.18E-04    0.64E-07
   1     11    11.565     6.014    0.42E-04    0.48E-04    0.13E-06
   2     10    11.565   266.542    0.24E-03    0.87E-04    0.13E-05
   2     10    11.565   232.726    0.24E-03    0.87E-04    0.13E-05
   0     11    11.565    38.050    0.76E-04    0.32E-05    0.94E-06
   0     11    11.565    16.565    0.58E-04    0.25E-05    0.73E-06
  PAW_PBE Nb_pv 08Apr2002               :
 energy of atom  1       EATOM=-1043.3917
 kinetic energy error for atom=    0.0011 (will be added to EATOM!!)


 POSCAR: Generated POSCAR
  positions in direct lattice
  velocities in cartesian coordinates
 exchange correlation table for  LEXCH =        8
   RHO(1)=    0.500       N(1)  =     2000
   RHO(2)=  100.500       N(2)  =     4000



--------------------------------------------------------------------------------------------------------


 ion  position               nearest neighbor table
   1  0.000  0.000  0.000-   2 2.84   2 2.84   2 2.84   2 2.84   2 2.92   2 2.92   2 2.92   2 2.92

   2  0.500  0.500  0.500-   1 2.84   1 2.84   1 2.84   1 2.84   1 2.92   1 2.92   1 2.92   1 2.92


  LATTYP: Found a base centered orthorhombic cell.
 ALAT       =     4.6043652789
 B/A-ratio  =     1.0408163265
 C/A-ratio  =     0.7215375318
  
  Lattice vectors:
  
 A1 = (   0.0000000000,  -0.0664444472,  -3.3222223590)
 A2 = (   0.0000000000,   3.3222223590,   0.0664444472)
 A3 = (   3.3222223590,   0.0000000000,   0.0000000000)


Analysis of symmetry for initial positions (statically):
=====================================================================
 Subroutine PRICEL returns following result:
 
  LATTYP: Found a face centered orthorhombic cell.
 ALAT       =     3.3222223590
 B/A-ratio  =     1.3859292911
 C/A-ratio  =     1.4424978336
  
  Lattice vectors:
  
 A1 = (   0.0000000000,   3.3222223590,   0.0664444472)
 A2 = (   1.6611111795,   1.6943334031,   1.6943334031)
 A3 = (   1.6611111795,   1.6278889559,  -1.6278889559)
 
   2 primitive cells build up your supercell.
 

 Routine SETGRP: Setting up the symmetry group for a 
 base centered orthorhombic supercell.


 Subroutine GETGRP returns: Found  8 space group operations
 (whereof  8 operations were pure point group operations)
 out of a pool of  8 trial point group operations.


The static configuration has the point symmetry D_2h.


Analysis of symmetry for dynamics (positions and initial velocities):
=====================================================================
 Subroutine PRICEL returns following result:
 
  LATTYP: Found a face centered orthorhombic cell.
 ALAT       =     3.3222223590
 B/A-ratio  =     1.3859292911
 C/A-ratio  =     1.4424978336
  
  Lattice vectors:
  
 A1 = (   0.0000000000,   3.3222223590,   0.0664444472)
 A2 = (   1.6611111795,   1.6943334031,   1.6943334031)
 A3 = (   1.6611111795,   1.6278889559,  -1.6278889559)
 
   2 primitive cells build up your supercell.
 

 Routine SETGRP: Setting up the symmetry group for a 
 base centered orthorhombic supercell.


 Subroutine GETGRP returns: Found  8 space group operations
 (whereof  8 operations were pure point group operations)
 out of a pool of  8 trial point group operations.


The dynamic configuration has the point symmetry D_2h.


Analysis of structural, dynamic, and magnetic symmetry:
=====================================================================
 Subroutine PRICEL returns following result:
 
  LATTYP: Found a face centered orthorhombic cell.
 ALAT       =     3.3222223590
 B/A-ratio  =     1.3859292911
 C/A-ratio  =     1.4424978336
  
  Lattice vectors:
  
 A1 = (   0.0000000000,   3.3222223590,   0.0664444472)
 A2 = (   1.6611111795,   1.6943334031,   1.6943334031)
 A3 = (   1.6611111795,   1.6278889559,  -1.6278889559)
 
   2 primitive cells build up your supercell.
 

 Routine SETGRP: Setting up the symmetry group for a 
 base centered orthorhombic supercell.


 Subroutine GETGRP returns: Found  8 space group operations
 (whereof  8 operations were pure point group operations)
 out of a pool of  8 trial point group operations.


The overall configuration has the point symmetry D_2h.


 Subroutine INISYM returns: Found  8 space group operations
 (whereof  8 operations are pure point group operations),
 and found     2 'primitive' translations


----------------------------------------------------------------------------------------

                                     Primitive cell                                     

  volume of cell :      18.3266

  direct lattice vectors                    reciprocal lattice vectors
     0.000000000  3.322222359  0.066444447    -0.301003332  0.301123782 -0.006022476
     1.661111179  1.694333403  1.694333403     0.301003332 -0.006022476  0.301123782
     1.661111179  1.627888956 -1.627888956     0.301003332  0.006022476 -0.301123782

  length of vectors
     3.322886737  2.915616866  2.838896838     0.425810765  0.425810765  0.425810765

  position of ions in fractional coordinates (direct lattice)
     0.000000000  0.000000000  0.000000000

  ion indices of the primitive-cell ions
   primitive index   ion index
                 1           1

----------------------------------------------------------------------------------------



 KPOINTS: pymatgen with grid density = 869 / numbe

Automatic generation of k-mesh.
 Grid dimensions read from file:
 generate k-points for:    7    7    7

 Generating k-lattice:

  Cartesian coordinates                     Fractional coordinates (reciprocal lattice)
     0.043000476 -0.000000000 -0.000000000     0.142857143  0.000000000  0.000000000
     0.000000000  0.043017683 -0.000860354    -0.000000000  0.142857143  0.000000000
    -0.000000000 -0.000860354  0.043017683     0.000000000  0.000000000  0.142857143

  Length of vectors
     0.043000476  0.043026286  0.043026286

  Shift w.r.t. Gamma in fractional coordinates (k-lattice)
     0.000000000  0.000000000  0.000000000

 TETIRR: Found    517 inequivalent tetrahedra from     2058
 
 Subroutine IBZKPT returns following result:
 ===========================================
 
 Found     64 irreducible k-points:
 
 Following reciprocal coordinates:
            Coordinates               Weight
  0.000000  0.000000  0.000000      1.000000
  0.142857  0.000000  0.000000      2.000000
  0.285714  0.000000  0.000000      2.000000
  0.428571  0.000000  0.000000      2.000000
  0.000000  0.142857  0.000000      4.000000
  0.142857  0.142857  0.000000      8.000000
  0.285714  0.142857  0.000000      8.000000
  0.428571  0.142857  0.000000      8.000000
  0.000000  0.285714  0.000000      4.000000
  0.142857  0.285714  0.000000      8.000000
  0.285714  0.285714  0.000000      8.000000
  0.428571  0.285714  0.000000      8.000000
  0.000000  0.428571  0.000000      4.000000
  0.142857  0.428571  0.000000      8.000000
  0.285714  0.428571  0.000000      8.000000
  0.428571  0.428571  0.000000      8.000000
  0.000000  0.142857  0.142857      2.000000
  0.142857  0.142857  0.142857      4.000000
  0.285714  0.142857  0.142857      4.000000
  0.428571  0.142857  0.142857      4.000000
  0.000000  0.285714  0.142857      4.000000
  0.142857  0.285714  0.142857      8.000000
  0.285714  0.285714  0.142857      8.000000
  0.428571  0.285714  0.142857      8.000000
  0.000000  0.428571  0.142857      4.000000
  0.142857  0.428571  0.142857      8.000000
  0.285714  0.428571  0.142857      8.000000
  0.428571  0.428571  0.142857      8.000000
  0.000000 -0.428571  0.142857      4.000000
  0.142857 -0.428571  0.142857      8.000000
  0.285714 -0.428571  0.142857      8.000000
  0.428571 -0.428571  0.142857      8.000000
  0.000000 -0.285714  0.142857      4.000000
  0.142857 -0.285714  0.142857      8.000000
  0.285714 -0.285714  0.142857      8.000000
  0.428571 -0.285714  0.142857      8.000000
  0.000000 -0.142857  0.142857      2.000000
  0.142857 -0.142857  0.142857      4.000000
  0.285714 -0.142857  0.142857      4.000000
  0.428571 -0.142857  0.142857      4.000000
  0.000000  0.285714  0.285714      2.000000
  0.142857  0.285714  0.285714      4.000000
  0.285714  0.285714  0.285714      4.000000
  0.428571  0.285714  0.285714      4.000000
  0.000000  0.428571  0.285714      4.000000
  0.142857  0.428571  0.285714      8.000000
  0.285714  0.428571  0.285714      8.000000
  0.428571  0.428571  0.285714      8.000000
  0.000000 -0.428571  0.285714      4.000000
  0.142857 -0.428571  0.285714      8.000000
  0.285714 -0.428571  0.285714      8.000000
  0.428571 -0.428571  0.285714      8.000000
  0.000000 -0.285714  0.285714      2.000000
  0.142857 -0.285714  0.285714      4.000000
  0.285714 -0.285714  0.285714      4.000000
  0.428571 -0.285714  0.285714      4.000000
  0.000000  0.428571  0.428571      2.000000
  0.142857  0.428571  0.428571      4.000000
  0.285714  0.428571  0.428571      4.000000
  0.428571  0.428571  0.428571      4.000000
  0.000000 -0.428571  0.428571      2.000000
  0.142857 -0.428571  0.428571      4.000000
  0.285714 -0.428571  0.428571      4.000000
  0.428571 -0.428571  0.428571      4.000000
 
 Following cartesian coordinates:
            Coordinates               Weight
  0.000000  0.000000  0.000000      1.000000
  0.043000  0.000000  0.000000      2.000000
  0.086001  0.000000  0.000000      2.000000
  0.129001  0.000000  0.000000      2.000000
  0.000000  0.043018 -0.000860      4.000000
  0.043000  0.043018 -0.000860      8.000000
  0.086001  0.043018 -0.000860      8.000000
  0.129001  0.043018 -0.000860      8.000000
  0.000000  0.086035 -0.001721      4.000000
  0.043000  0.086035 -0.001721      8.000000
  0.086001  0.086035 -0.001721      8.000000
  0.129001  0.086035 -0.001721      8.000000
  0.000000  0.129053 -0.002581      4.000000
  0.043000  0.129053 -0.002581      8.000000
  0.086001  0.129053 -0.002581      8.000000
  0.129001  0.129053 -0.002581      8.000000
  0.000000  0.042157  0.042157      2.000000
  0.043000  0.042157  0.042157      4.000000
  0.086001  0.042157  0.042157      4.000000
  0.129001  0.042157  0.042157      4.000000
  0.000000  0.085175  0.041297      4.000000
  0.043000  0.085175  0.041297      8.000000
  0.086001  0.085175  0.041297      8.000000
  0.129001  0.085175  0.041297      8.000000
  0.000000  0.128193  0.040437      4.000000
  0.043000  0.128193  0.040437      8.000000
  0.086001  0.128193  0.040437      8.000000
  0.129001  0.128193  0.040437      8.000000
  0.000000 -0.129913  0.045599      4.000000
  0.043000 -0.129913  0.045599      8.000000
  0.086001 -0.129913  0.045599      8.000000
  0.129001 -0.129913  0.045599      8.000000
  0.000000 -0.086896  0.044738      4.000000
  0.043000 -0.086896  0.044738      8.000000
  0.086001 -0.086896  0.044738      8.000000
  0.129001 -0.086896  0.044738      8.000000
  0.000000 -0.043878  0.043878      2.000000
  0.043000 -0.043878  0.043878      4.000000
  0.086001 -0.043878  0.043878      4.000000
  0.129001 -0.043878  0.043878      4.000000
  0.000000  0.084315  0.084315      2.000000
  0.043000  0.084315  0.084315      4.000000
  0.086001  0.084315  0.084315      4.000000
  0.129001  0.084315  0.084315      4.000000
  0.000000  0.127332  0.083454      4.000000
  0.043000  0.127332  0.083454      8.000000
  0.086001  0.127332  0.083454      8.000000
  0.129001  0.127332  0.083454      8.000000
  0.000000 -0.130774  0.088616      4.000000
  0.043000 -0.130774  0.088616      8.000000
  0.086001 -0.130774  0.088616      8.000000
  0.129001 -0.130774  0.088616      8.000000
  0.000000 -0.087756  0.087756      2.000000
  0.043000 -0.087756  0.087756      4.000000
  0.086001 -0.087756  0.087756      4.000000
  0.129001 -0.087756  0.087756      4.000000
  0.000000  0.126472  0.126472      2.000000
  0.043000  0.126472  0.126472      4.000000
  0.086001  0.126472  0.126472      4.000000
  0.129001  0.126472  0.126472      4.000000
  0.000000 -0.131634  0.131634      2.000000
  0.043000 -0.131634  0.131634      4.000000
  0.086001 -0.131634  0.131634      4.000000
  0.129001 -0.131634  0.131634      4.000000
 


--------------------------------------------------------------------------------------------------------




 Dimension of arrays:
   k-points           NKPTS =     64   k-points in BZ     NKDIM =     64   number of bands    NBANDS=     16
   number of dos      NEDOS =    301   number of ions     NIONS =      2
   non local maximal  LDIM  =      6   non local SUM 2l+1 LMDIM =     18
   total plane-waves  NPLWV =  21952
   max r-space proj   IRMAX =  10859   max aug-charges    IRDMAX=  37069
   dimension x,y,z NGX =    28 NGY =   28 NGZ =   28
   dimension x,y,z NGXF=    56 NGYF=   56 NGZF=   56
   support grid    NGXF=    56 NGYF=   56 NGZF=   56
   ions per type =               2
   NGX,Y,Z   is equivalent  to a cutoff of  14.01, 14.01, 14.01 a.u.
   NGXF,Y,Z  is equivalent  to a cutoff of  28.02, 28.02, 28.02 a.u.

 SYSTEM =  unknown system                          
 POSCAR =  Generated POSCAR                        

 Startparameter for this run:
   NWRITE =      2    write-flag & timer
   PREC   = accura    normal or accurate (medium, high low for compatibility)
   ISTART =      0    job   : 0-new  1-cont  2-samecut
   ICHARG =      2    charge: 1-file 2-atom 10-const
   ISPIN  =      2    spin polarized calculation?
   LNONCOLLINEAR =      F non collinear calculations
   LSORBIT =      F    spin-orbit coupling
   INIWAV =      1    electr: 0-lowe 1-rand  2-diag
   LASPH  =      T    aspherical Exc in radial PAW
 Electronic Relaxation 1
   ENCUT  =  520.0 eV  38.22 Ry    6.18 a.u.   6.18  6.18  6.18*2*pi/ulx,y,z
   ENINI  =  520.0     initial cutoff
   ENAUG  =  355.1 eV  augmentation charge cutoff
   NELM   =    100;   NELMIN=  2; NELMDL= -5     # of ELM steps 
   EDIFF  = 0.1E-03   stopping-criterion for ELM
   LREAL  =      T    real-space projection
   NLSPLINE    = F    spline interpolate recip. space projectors
   LCOMPAT=      F    compatible to vasp.4.4
   GGA_COMPAT  = T    GGA compatible to vasp.4.4-vasp.4.6
   LMAXPAW     = -100 max onsite density
   LMAXMIX     =    6 max onsite mixed and CHGCAR
   VOSKOWN=      0    Vosko Wilk Nusair interpolation
   ROPT   =   -0.00025
 Ionic relaxation
   EDIFFG = 0.1E-02   stopping-criterion for IOM
   NSW    =      0    number of steps for IOM
   NBLOCK =      1;   KBLOCK =      1    inner block; outer block 
   IBRION =     -1    ionic relax: 0-MD 1-quasi-New 2-CG
   NFREE  =      0    steps in history (QN), initial steepest desc. (CG)
   ISIF   =      2    stress and relaxation
   IWAVPR =     10    prediction:  0-non 1-charg 2-wave 3-comb
   ISYM   =      2    0-nonsym 1-usesym 2-fastsym
   LCORR  =      T    Harris-Foulkes like correction to forces

   POTIM  = 0.5000    time-step for ionic-motion
   TEIN   =    0.0    initial temperature
   TEBEG  =    0.0;   TEEND  =   0.0 temperature during run
   SMASS  =  -3.00    Nose mass-parameter (am)
   estimated Nose-frequenzy (Omega)   =  0.10E-29 period in steps = 0.13E+47 mass=  -0.252E-27a.u.
   SCALEE = 1.0000    scale energy and forces
   NPACO  =    256;   APACO  = 10.0  distance and # of slots for P.C.
   PSTRESS=    0.0 pullay stress

  Mass of Ions in am
   POMASS =  92.00
  Ionic Valenz
   ZVAL   =  11.00
  Atomic Wigner-Seitz radii
   RWIGS  =  -1.00
  virtual crystal weights 
   VCA    =   1.00
   NELECT =      22.0000    total number of electrons
   NUPDOWN=      -1.0000    fix difference up-down

 DOS related values:
   EMIN   =  10.00;   EMAX   =-10.00  energy-range for DOS
   EFERMI =   0.00;   METHOD = LEGACY      
   ISMEAR =    -5;   SIGMA  =   0.05  broadening in eV -4-tet -1-fermi 0-gaus

 Electronic relaxation 2 (details)
   IALGO  =     68    algorithm
   LDIAG  =      T    sub-space diagonalisation (order eigenvalues)
   LSUBROT=      F    optimize rotation matrix (better conditioning)
   TURBO    =      0    0=normal 1=particle mesh
   IRESTART =      0    0=no restart 2=restart with 2 vectors
   NREBOOT  =      0    no. of reboots
   NMIN     =      0    reboot dimension
   EREF     =   0.00    reference energy to select bands
   IMIX   =      4    mixing-type and parameters
     AMIX     =   0.40;   BMIX     =  1.00
     AMIX_MAG =   1.60;   BMIX_MAG =  1.00
     AMIN     =   0.10
     WC   =   100.;   INIMIX=   1;  MIXPRE=   1;  MAXMIX= -45

 Intra band minimization:
   WEIMIN = 0.0000     energy-eigenvalue tresh-hold
   EBREAK =  0.16E-05  absolut break condition
   DEPER  =   0.30     relativ break condition  

   TIME   =   0.40     timestep for ELM

  volume/ion in A,a.u.               =      18.33       123.67
  Fermi-wavevector in a.u.,A,eV,Ry     =   1.380951  2.609619 25.946661  1.907026
  Thomas-Fermi vector in A             =   2.505781

 Write flags
   LWAVE        =      F    write WAVECAR
   LDOWNSAMPLE  =      F    k-point downsampling of WAVECAR
   LCHARG       =      T    write CHGCAR
   LVTOT        =      F    write LOCPOT, total local potential
   LVHAR        =      F    write LOCPOT, Hartree potential only
   LELF         =      F    write electronic localiz. function (ELF)
   LORBIT       =     11    0 simple, 1 ext, 2 COOP (PROOUT), +10 PAW based schemes


 Dipole corrections
   LMONO  =      F    monopole corrections only (constant potential shift)
   LDIPOL =      F    correct potential (dipole corrections)
   IDIPOL =      0    1-x, 2-y, 3-z, 4-all directions 
   EPSILON=  1.0000000 bulk dielectric constant

 Exchange correlation treatment:
   GGA     =    --    GGA type
   LEXCH   =     8    internal setting for exchange type
   LIBXC   =     F    Libxc                    
   VOSKOWN =     0    Vosko Wilk Nusair interpolation
   LHFCALC =     F    Hartree Fock is set to
   LHFONE  =     F    Hartree Fock one center treatment
   AEXX    =    0.0000 exact exchange contribution

 Linear response parameters
   LEPSILON=     F    determine dielectric tensor
   LRPA    =     F    only Hartree local field effects (RPA)
   LNABLA  =     F    use nabla operator in PAW spheres
   LVEL    =     F    velocity operator in full k-point grid
   CSHIFT  =0.1000    complex shift for real part using Kramers Kronig
   OMEGAMAX=  -1.0    maximum frequency
   DEG_THRESHOLD= 0.2000000E-02 threshold for treating states as degnerate
   RTIME   =   -0.100 relaxation time in fs
  (WPLASMAI=    0.000 imaginary part of plasma frequency in eV, 0.658/RTIME)
   DFIELD  = 0.0000000 0.0000000 0.0000000 field for delta impulse in time

  Optional k-point grid parameters
   LKPOINTS_OPT  =     F    use optional k-point grid
   KPOINTS_OPT_MODE=     1    mode for optional k-point grid

 Orbital magnetization related:
   ORBITALMAG=     F  switch on orbital magnetization
   LCHIMAG   =     F  perturbation theory with respect to B field
   DQ        =  0.001000  dq finite difference perturbation B field
   LLRAUG    =     F  two centre corrections for induced B field
   LBONE     =     F  B-component reconstruction in AE one-centre
   LVGVCALC  =     T  calculate vGv susceptibility
   LVGVAPPL  =     F  apply vGv susceptibility instead of pGv for G=0

 Random number generation:
   RANDOM_GENERATOR = DEFAULT
   PCG_SEED         = not used


--------------------------------------------------------------------------------------------------------


 Static calculation
 charge density and potential will be updated during run
 spin polarized calculation
 RMM-DIIS sequential band-by-band and
  variant of blocked Davidson during initial phase
 perform sub-space diagonalisation
    before iterative eigenvector-optimisation
 modified Broyden-mixing scheme, WC =      100.0
 initial mixing is a Kerker type mixing with AMIX =  0.4000 and BMIX =      1.0000
 Hartree-type preconditioning will be used
 using additional bands            5
 real space projection scheme for non local part
 use partial core corrections
 calculate Harris-corrections to forces   (improved forces if not selfconsistent)
 use gradient corrections 
 use of overlap-Matrix (Vanderbilt PP)
 Fermi weights with tetrahedron method with Bloechl corrections


--------------------------------------------------------------------------------------------------------


  energy-cutoff  :      520.00
  volume of cell :       36.65
      direct lattice vectors                 reciprocal lattice vectors
     3.322222359  0.000000000  0.000000000     0.301003332 -0.000000000 -0.000000000
     0.000000000  3.322222359  0.066444447     0.000000000  0.301123782 -0.006022476
     0.000000000  0.066444447  3.322222359    -0.000000000 -0.006022476  0.301123782

  length of vectors
     3.322222359  3.322886737  3.322886737     0.301003332  0.301184000  0.301184000



 k-points in units of 2pi/SCALE and weight: pymatgen with grid density = 869 / numbe
   0.00000000  0.00000000  0.00000000       0.003
   0.04300048  0.00000000  0.00000000       0.006
   0.08600095  0.00000000  0.00000000       0.006
   0.12900143  0.00000000  0.00000000       0.006
   0.00000000  0.04301768 -0.00086035       0.012
   0.04300048  0.04301768 -0.00086035       0.023
   0.08600095  0.04301768 -0.00086035       0.023
   0.12900143  0.04301768 -0.00086035       0.023
   0.00000000  0.08603537 -0.00172071       0.012
   0.04300048  0.08603537 -0.00172071       0.023
   0.08600095  0.08603537 -0.00172071       0.023
   0.12900143  0.08603537 -0.00172071       0.023
   0.00000000  0.12905305 -0.00258106       0.012
   0.04300048  0.12905305 -0.00258106       0.023
   0.08600095  0.12905305 -0.00258106       0.023
   0.12900143  0.12905305 -0.00258106       0.023
   0.00000000  0.04215733  0.04215733       0.006
   0.04300048  0.04215733  0.04215733       0.012
   0.08600095  0.04215733  0.04215733       0.012
   0.12900143  0.04215733  0.04215733       0.012
   0.00000000  0.08517501  0.04129698       0.012
   0.04300048  0.08517501  0.04129698       0.023
   0.08600095  0.08517501  0.04129698       0.023
   0.12900143  0.08517501  0.04129698       0.023
   0.00000000  0.12819270  0.04043662       0.012
   0.04300048  0.12819270  0.04043662       0.023
   0.08600095  0.12819270  0.04043662       0.023
   0.12900143  0.12819270  0.04043662       0.023
   0.00000000 -0.12991340  0.04559874       0.012
   0.04300048 -0.12991340  0.04559874       0.023
   0.08600095 -0.12991340  0.04559874       0.023
   0.12900143 -0.12991340  0.04559874       0.023
   0.00000000 -0.08689572  0.04473839       0.012
   0.04300048 -0.08689572  0.04473839       0.023
   0.08600095 -0.08689572  0.04473839       0.023
   0.12900143 -0.08689572  0.04473839       0.023
   0.00000000 -0.04387804  0.04387804       0.006
   0.04300048 -0.04387804  0.04387804       0.012
   0.08600095 -0.04387804  0.04387804       0.012
   0.12900143 -0.04387804  0.04387804       0.012
   0.00000000  0.08431466  0.08431466       0.006
   0.04300048  0.08431466  0.08431466       0.012
   0.08600095  0.08431466  0.08431466       0.012
   0.12900143  0.08431466  0.08431466       0.012
   0.00000000  0.12733234  0.08345431       0.012
   0.04300048  0.12733234  0.08345431       0.023
   0.08600095  0.12733234  0.08345431       0.023
   0.12900143  0.12733234  0.08345431       0.023
   0.00000000 -0.13077376  0.08861643       0.012
   0.04300048 -0.13077376  0.08861643       0.023
   0.08600095 -0.13077376  0.08861643       0.023
   0.12900143 -0.13077376  0.08861643       0.023
   0.00000000 -0.08775607  0.08775607       0.006
   0.04300048 -0.08775607  0.08775607       0.012
   0.08600095 -0.08775607  0.08775607       0.012
   0.12900143 -0.08775607  0.08775607       0.012
   0.00000000  0.12647199  0.12647199       0.006
   0.04300048  0.12647199  0.12647199       0.012
   0.08600095  0.12647199  0.12647199       0.012
   0.12900143  0.12647199  0.12647199       0.012
   0.00000000 -0.13163411  0.13163411       0.006
   0.04300048 -0.13163411  0.13163411       0.012
   0.08600095 -0.13163411  0.13163411       0.012
   0.12900143 -0.13163411  0.13163411       0.012

 k-points in reciprocal lattice and weights: pymatgen with grid density = 869 / numbe
   0.00000000  0.00000000  0.00000000       0.003
   0.14285714  0.00000000  0.00000000       0.006
   0.28571429  0.00000000  0.00000000       0.006
   0.42857143  0.00000000  0.00000000       0.006
   0.00000000  0.14285714  0.00000000       0.012
   0.14285714  0.14285714  0.00000000       0.023
   0.28571429  0.14285714  0.00000000       0.023
   0.42857143  0.14285714  0.00000000       0.023
   0.00000000  0.28571429  0.00000000       0.012
   0.14285714  0.28571429  0.00000000       0.023
   0.28571429  0.28571429  0.00000000       0.023
   0.42857143  0.28571429  0.00000000       0.023
   0.00000000  0.42857143  0.00000000       0.012
   0.14285714  0.42857143  0.00000000       0.023
   0.28571429  0.42857143  0.00000000       0.023
   0.42857143  0.42857143  0.00000000       0.023
   0.00000000  0.14285714  0.14285714       0.006
   0.14285714  0.14285714  0.14285714       0.012
   0.28571429  0.14285714  0.14285714       0.012
   0.42857143  0.14285714  0.14285714       0.012
   0.00000000  0.28571429  0.14285714       0.012
   0.14285714  0.28571429  0.14285714       0.023
   0.28571429  0.28571429  0.14285714       0.023
   0.42857143  0.28571429  0.14285714       0.023
   0.00000000  0.42857143  0.14285714       0.012
   0.14285714  0.42857143  0.14285714       0.023
   0.28571429  0.42857143  0.14285714       0.023
   0.42857143  0.42857143  0.14285714       0.023
   0.00000000 -0.42857143  0.14285714       0.012
   0.14285714 -0.42857143  0.14285714       0.023
   0.28571429 -0.42857143  0.14285714       0.023
   0.42857143 -0.42857143  0.14285714       0.023
   0.00000000 -0.28571429  0.14285714       0.012
   0.14285714 -0.28571429  0.14285714       0.023
   0.28571429 -0.28571429  0.14285714       0.023
   0.42857143 -0.28571429  0.14285714       0.023
   0.00000000 -0.14285714  0.14285714       0.006
   0.14285714 -0.14285714  0.14285714       0.012
   0.28571429 -0.14285714  0.14285714       0.012
   0.42857143 -0.14285714  0.14285714       0.012
   0.00000000  0.28571429  0.28571429       0.006
   0.14285714  0.28571429  0.28571429       0.012
   0.28571429  0.28571429  0.28571429       0.012
   0.42857143  0.28571429  0.28571429       0.012
   0.00000000  0.42857143  0.28571429       0.012
   0.14285714  0.42857143  0.28571429       0.023
   0.28571429  0.42857143  0.28571429       0.023
   0.42857143  0.42857143  0.28571429       0.023
   0.00000000 -0.42857143  0.28571429       0.012
   0.14285714 -0.42857143  0.28571429       0.023
   0.28571429 -0.42857143  0.28571429       0.023
   0.42857143 -0.42857143  0.28571429       0.023
   0.00000000 -0.28571429  0.28571429       0.006
   0.14285714 -0.28571429  0.28571429       0.012
   0.28571429 -0.28571429  0.28571429       0.012
   0.42857143 -0.28571429  0.28571429       0.012
   0.00000000  0.42857143  0.42857143       0.006
   0.14285714  0.42857143  0.42857143       0.012
   0.28571429  0.42857143  0.42857143       0.012
   0.42857143  0.42857143  0.42857143       0.012
   0.00000000 -0.42857143  0.42857143       0.006
   0.14285714 -0.42857143  0.42857143       0.012
   0.28571429 -0.42857143  0.42857143       0.012
   0.42857143 -0.42857143  0.42857143       0.012

 position of ions in fractional coordinates (direct lattice) 
   0.00000000  0.00000000  0.00000000
   0.50000000  0.50000000  0.50000000

 position of ions in cartesian coordinates  (Angst):
   0.00000000  0.00000000  0.00000000
   1.66111118  1.69433340  1.69433340



--------------------------------------------------------------------------------------------------------


 k-point   1 :   0.0000 0.0000 0.0000  plane waves:     989
 k-point   2 :   0.1429 0.0000 0.0000  plane waves:     985
 k-point   3 :   0.2857 0.0000 0.0000  plane waves:     988
 k-point   4 :   0.4286 0.0000 0.0000  plane waves:     982
 k-point   5 :   0.0000 0.1429 0.0000  plane waves:     983
 k-point   6 :   0.1429 0.1429 0.0000  plane waves:     983
 k-point   7 :   0.2857 0.1429 0.0000  plane waves:     987
 k-point   8 :   0.4286 0.1429 0.0000  plane waves:     985
 k-point   9 :   0.0000 0.2857 0.0000  plane waves:     990
 k-point  10 :   0.1429 0.2857 0.0000  plane waves:     986
 k-point  11 :   0.2857 0.2857 0.0000  plane waves:     987
 k-point  12 :   0.4286 0.2857 0.0000  plane waves:     986
 k-point  13 :   0.0000 0.4286 0.0000  plane waves:     984
 k-point  14 :   0.1429 0.4286 0.0000  plane waves:     988
 k-point  15 :   0.2857 0.4286 0.0000  plane waves:     983
 k-point  16 :   0.4286 0.4286 0.0000  plane waves:     991
 k-point  17 :   0.0000 0.1429 0.1429  plane waves:     985
 k-point  18 :   0.1429 0.1429 0.1429  plane waves:     982
 k-point  19 :   0.2857 0.1429 0.1429  plane waves:     995
 k-point  20 :   0.4286 0.1429 0.1429  plane waves:     990
 k-point  21 :   0.0000 0.2857 0.1429  plane waves:     984
 k-point  22 :   0.1429 0.2857 0.1429  plane waves:     991
 k-point  23 :   0.2857 0.2857 0.1429  plane waves:     991
 k-point  24 :   0.4286 0.2857 0.1429  plane waves:     986
 k-point  25 :   0.0000 0.4286 0.1429  plane waves:     989
 k-point  26 :   0.1429 0.4286 0.1429  plane waves:     988
 k-point  27 :   0.2857 0.4286 0.1429  plane waves:     987
 k-point  28 :   0.4286 0.4286 0.1429  plane waves:     992
 k-point  29 :   0.0000-0.4286 0.1429  plane waves:     982
 k-point  30 :   0.1429-0.4286 0.1429  plane waves:     980
 k-point  31 :   0.2857-0.4286 0.1429  plane waves:     987
 k-point  32 :   0.4286-0.4286 0.1429  plane waves:     996
 k-point  33 :   0.0000-0.2857 0.1429  plane waves:     981
 k-point  34 :   0.1429-0.2857 0.1429  plane waves:     980
 k-point  35 :   0.2857-0.2857 0.1429  plane waves:     983
 k-point  36 :   0.4286-0.2857 0.1429  plane waves:     981
 k-point  37 :   0.0000-0.1429 0.1429  plane waves:     981
 k-point  38 :   0.1429-0.1429 0.1429  plane waves:     977
 k-point  39 :   0.2857-0.1429 0.1429  plane waves:     981
 k-point  40 :   0.4286-0.1429 0.1429  plane waves:     978
 k-point  41 :   0.0000 0.2857 0.2857  plane waves:     989
 k-point  42 :   0.1429 0.2857 0.2857  plane waves:     996
 k-point  43 :   0.2857 0.2857 0.2857  plane waves:     994
 k-point  44 :   0.4286 0.2857 0.2857  plane waves:     984
 k-point  45 :   0.0000 0.4286 0.2857  plane waves:     992
 k-point  46 :   0.1429 0.4286 0.2857  plane waves:     993
 k-point  47 :   0.2857 0.4286 0.2857  plane waves:     986
 k-point  48 :   0.4286 0.4286 0.2857  plane waves:     987
 k-point  49 :   0.0000-0.4286 0.2857  plane waves:     983
 k-point  50 :   0.1429-0.4286 0.2857  plane waves:     991
 k-point  51 :   0.2857-0.4286 0.2857  plane waves:     988
 k-point  52 :   0.4286-0.4286 0.2857  plane waves:     995
 k-point  53 :   0.0000-0.2857 0.2857  plane waves:     980
 k-point  54 :   0.1429-0.2857 0.2857  plane waves:     982
 k-point  55 :   0.2857-0.2857 0.2857  plane waves:     985
 k-point  56 :   0.4286-0.2857 0.2857  plane waves:     984
 k-point  57 :   0.0000 0.4286 0.4286  plane waves:     989
 k-point  58 :   0.1429 0.4286 0.4286  plane waves:     984
 k-point  59 :   0.2857 0.4286 0.4286  plane waves:     992
 k-point  60 :   0.4286 0.4286 0.4286  plane waves:     988
 k-point  61 :   0.0000-0.4286 0.4286  plane waves:     976
 k-point  62 :   0.1429-0.4286 0.4286  plane waves:     985
 k-point  63 :   0.2857-0.4286 0.4286  plane waves:     992
 k-point  64 :   0.4286-0.4286 0.4286  plane waves:     998

 maximum and minimum number of plane-waves per node :       998      976

 maximum number of plane-waves:       998
 maximum index in each direction: 
   IXMAX=    6   IYMAX=    6   IZMAX=    6
   IXMIN=   -6   IYMIN=   -6   IZMIN=   -6


 serial   3D FFT for wavefunctions
 parallel 3D FFT for charge:
    minimum data exchange during FFTs selected (reduces bandwidth)


 total amount of memory used by VASP MPI-rank0    91171. kBytes
=======================================================================

   base      :      30000. kBytes
   nonlr-proj:       6259. kBytes
   fftplans  :       6192. kBytes
   grid      :      14776. kBytes
   one-center:         62. kBytes
   wavefun   :      33882. kBytes

     INWAV:  cpu time      0.0063: real time      0.0000
 Broyden mixing: mesh for mixing (old mesh)
   NGX = 13   NGY = 13   NGZ = 13
  (NGX  = 56   NGY  = 56   NGZ  = 56)
  gives a total of   2197 points

 initial charge density was supplied:
 charge density of overlapping atoms calculated
 number of electron      22.0000000 magnetization       1.2000000
 keeping initial charge density in first step


--------------------------------------------------------------------------------------------------------


 Maximum index for non-local projection operator         1138
 Maximum index for augmentation-charges        35777 (set IRDMAX)


--------------------------------------------------------------------------------------------------------


 First call to EWALD:  gamma=   0.534
 Maximum number of real-space cells 3x 3x 3
 Maximum number of reciprocal cells 3x 3x 3

    FEWALD:  cpu time      0.1422: real time      0.0044


--------------------------------------- Ionic step        1  -------------------------------------------




--------------------------------------- Iteration      1(   1)  ---------------------------------------


    POTLOK:  cpu time      2.0483: real time      0.1532
    SETDIJ:  cpu time      1.2347: real time      0.2619
     EDDAV:  cpu time    303.0534: real time     17.5475
 BZINTS: Fermi energy:   23.393681;   22.000000 electrons
         Band energy:-0.297068E+02;  BLOECHL correction:   -0.871437
       DOS:  cpu time      0.2721: real time      0.0265
    --------------------------------------------
      LOOP:  cpu time    306.6085: real time     17.9890

 eigenvalue-minimisations  :  4472
 total energy-change (2. order) : 0.2004114E+03  (-0.1170675E+04)
 number of electron      22.0000000 magnetization       1.2000000
 augmentation part       22.0000000 magnetization       1.2000000

 Free energy of the ion-electron system (eV)
  ---------------------------------------------------
  alpha Z        PSCENC =       247.02244180
  Ewald energy   TEWEN  =     -1908.57692376
  -Hartree energ DENC   =      -279.63742349
  -exchange      EXHF   =         0.00000000
  -V(xc)+E(xc)   XCENC  =        52.62034554
  PAW double counting   =      1671.32378679    -1639.41528309
  entropy T*S    EENTRO =         0.00000000
  eigenvalues    EBANDS =       -29.70681263
  atomic energy  EATOM  =      2086.78124273
  Solvation  Ediel_sol  =         0.00000000
  ---------------------------------------------------
  free energy    TOTEN  =       200.41137389 eV

  energy without entropy =      200.41137389  energy(sigma->0) =      200.41137389


--------------------------------------------------------------------------------------------------------




--------------------------------------- Iteration      1(   2)  ---------------------------------------


     EDDAV:  cpu time    300.6709: real time     17.3193
 BZINTS: Fermi energy:    6.958619;   22.000000 electrons
         Band energy:-0.241240E+03;  BLOECHL correction:   -0.343668
       DOS:  cpu time      0.2771: real time      0.0270
    --------------------------------------------
      LOOP:  cpu time    300.9481: real time     17.3463

 eigenvalue-minimisations  :  4408
 total energy-change (2. order) :-0.2115329E+03  (-0.2093130E+03)
 number of electron      22.0000000 magnetization       1.2000000
 augmentation part       22.0000000 magnetization       1.2000000

 Free energy of the ion-electron system (eV)
  ---------------------------------------------------
  alpha Z        PSCENC =       247.02244180
  Ewald energy   TEWEN  =     -1908.57692376
  -Hartree energ DENC   =      -279.63742349
  -exchange      EXHF   =         0.00000000
  -V(xc)+E(xc)   XCENC  =        52.62034554
  PAW double counting   =      1671.32378679    -1639.41528309
  entropy T*S    EENTRO =         0.00000000
  eigenvalues    EBANDS =      -241.23974715
  atomic energy  EATOM  =      2086.78124273
  Solvation  Ediel_sol  =         0.00000000
  ---------------------------------------------------
  free energy    TOTEN  =       -11.12156063 eV

  energy without entropy =      -11.12156063  energy(sigma->0) =      -11.12156063


--------------------------------------------------------------------------------------------------------




--------------------------------------- Iteration      1(   3)  ---------------------------------------


     EDDAV:  cpu time    404.9658: real time     23.6173
 BZINTS: Fermi energy:    5.474212;   22.000000 electrons
         Band energy:-0.251058E+03;  BLOECHL correction:   -0.208942
       DOS:  cpu time      0.2734: real time      0.0265
    --------------------------------------------
      LOOP:  cpu time    405.2392: real time     23.6439

 eigenvalue-minimisations  :  6736
 total energy-change (2. order) :-0.9818480E+01  (-0.9281948E+01)
 number of electron      22.0000000 magnetization       1.2000000
 augmentation part       22.0000000 magnetization       1.2000000

 Free energy of the ion-electron system (eV)
  ---------------------------------------------------
  alpha Z        PSCENC =       247.02244180
  Ewald energy   TEWEN  =     -1908.57692376
  -Hartree energ DENC   =      -279.63742349
  -exchange      EXHF   =         0.00000000
  -V(xc)+E(xc)   XCENC  =        52.62034554
  PAW double counting   =      1671.32378679    -1639.41528309
  entropy T*S    EENTRO =         0.00000000
  eigenvalues    EBANDS =      -251.05822753
  atomic energy  EATOM  =      2086.78124273
  Solvation  Ediel_sol  =         0.00000000
  ---------------------------------------------------
  free energy    TOTEN  =       -20.94004101 eV

  energy without entropy =      -20.94004101  energy(sigma->0) =      -20.94004101


--------------------------------------------------------------------------------------------------------




--------------------------------------- Iteration      1(   4)  ---------------------------------------


     EDDAV:  cpu time    322.6304: real time     18.7683
 BZINTS: Fermi energy:    5.445998;   22.000000 electrons
         Band energy:-0.251253E+03;  BLOECHL correction:   -0.205250
       DOS:  cpu time      0.3124: real time      0.0295
    --------------------------------------------
      LOOP:  cpu time    322.9429: real time     18.7978

 eigenvalue-minimisations  :  5056
 total energy-change (2. order) :-0.1944699E+00  (-0.1921913E+00)
 number of electron      22.0000000 magnetization       1.2000000
 augmentation part       22.0000000 magnetization       1.2000000

 Free energy of the ion-electron system (eV)
  ---------------------------------------------------
  alpha Z        PSCENC =       247.02244180
  Ewald energy   TEWEN  =     -1908.57692376
  -Hartree energ DENC   =      -279.63742349
  -exchange      EXHF   =         0.00000000
  -V(xc)+E(xc)   XCENC  =        52.62034554
  PAW double counting   =      1671.32378679    -1639.41528309
  entropy T*S    EENTRO =         0.00000000
  eigenvalues    EBANDS =      -251.25269748
  atomic energy  EATOM  =      2086.78124273
  Solvation  Ediel_sol  =         0.00000000
  ---------------------------------------------------
  free energy    TOTEN  =       -21.13451096 eV

  energy without entropy =      -21.13451096  energy(sigma->0) =      -21.13451096


--------------------------------------------------------------------------------------------------------




--------------------------------------- Iteration      1(   5)  ---------------------------------------


     EDDAV:  cpu time    424.1098: real time     24.4511
 BZINTS: Fermi energy:    5.443277;   22.000000 electrons
         Band energy:-0.251259E+03;  BLOECHL correction:   -0.204569
       DOS:  cpu time      0.3196: real time      0.0286
    CHARGE:  cpu time     18.7618: real time      1.1284
    MIXING:  cpu time      0.0014: real time      0.0014
    --------------------------------------------
      LOOP:  cpu time    443.1926: real time     25.6095

 eigenvalue-minimisations  :  6480
 total energy-change (2. order) :-0.6768112E-02  (-0.6363479E-02)
 number of electron      22.0000001 magnetization       0.3465300
 augmentation part        7.7592671 magnetization      -0.0578087

 Broyden mixing:
  rms(total) = 0.24033E+01    rms(broyden)= 0.24033E+01
  rms(prec ) = 0.28253E+01
  weight for this iteration     100.00

 Free energy of the ion-electron system (eV)
  ---------------------------------------------------
  alpha Z        PSCENC =       247.02244180
  Ewald energy   TEWEN  =     -1908.57692376
  -Hartree energ DENC   =      -279.63742349
  -exchange      EXHF   =         0.00000000
  -V(xc)+E(xc)   XCENC  =        52.62034554
  PAW double counting   =      1671.32378679    -1639.41528309
  entropy T*S    EENTRO =         0.00000000
  eigenvalues    EBANDS =      -251.25946559
  atomic energy  EATOM  =      2086.78124273
  Solvation  Ediel_sol  =         0.00000000
  ---------------------------------------------------
  free energy    TOTEN  =       -21.14127907 eV

  energy without entropy =      -21.14127907  energy(sigma->0) =      -21.14127907


--------------------------------------------------------------------------------------------------------




--------------------------------------- Iteration      1(   6)  ---------------------------------------


    POTLOK:  cpu time      1.6082: real time      0.1170
    SETDIJ:  cpu time      1.0999: real time      0.2491
    EDDIAG:  cpu time     66.4092: real time      3.8869
  RMM-DIIS:  cpu time    195.4839: real time     11.1662
    ORTHCH:  cpu time      1.0875: real time      0.0674
 BZINTS: Fermi energy:    5.096549;   22.000000 electrons
         Band energy:-0.265244E+03;  BLOECHL correction:   -0.206595
       DOS:  cpu time      0.2622: real time      0.0267
    CHARGE:  cpu time     20.7685: real time      1.2279
    MIXING:  cpu time      0.1034: real time      0.0015
    --------------------------------------------
      LOOP:  cpu time    286.8228: real time     16.7426

 eigenvalue-minimisations  :  4499
 total energy-change (2. order) : 0.7981400E+00  (-0.7958826E-01)
 number of electron      22.0000001 magnetization       0.1610040
 augmentation part        7.8860510 magnetization      -0.0534096

 Broyden mixing:
  rms(total) = 0.91642E+00    rms(broyden)= 0.91642E+00
  rms(prec ) = 0.11965E+01
  weight for this iteration     100.00

 eigenvalues of (default mixing * dielectric matrix)
  average eigenvalue GAMMA=   1.5026
  1.5026

 Free energy of the ion-electron system (eV)
  ---------------------------------------------------
  alpha Z        PSCENC =       247.02244180
  Ewald energy   TEWEN  =     -1908.57692376
  -Hartree energ DENC   =      -260.36125084
  -exchange      EXHF   =         0.00000000
  -V(xc)+E(xc)   XCENC  =        51.60917894
  PAW double counting   =      2187.92681022    -2159.50036008
  entropy T*S    EENTRO =         0.00000000
  eigenvalues    EBANDS =      -265.24427811
  atomic energy  EATOM  =      2086.78124273
  Solvation  Ediel_sol  =         0.00000000
  ---------------------------------------------------
  free energy    TOTEN  =       -20.34313910 eV

  energy without entropy =      -20.34313910  energy(sigma->0) =      -20.34313910


--------------------------------------------------------------------------------------------------------




--------------------------------------- Iteration      1(   7)  ---------------------------------------


    POTLOK:  cpu time      1.5629: real time      0.1202
    SETDIJ:  cpu time      1.1037: real time      0.2530
    EDDIAG:  cpu time     61.5810: real time      3.6126
  RMM-DIIS:  cpu time    259.6068: real time     14.6279
    ORTHCH:  cpu time      1.2975: real time      0.0839
 BZINTS: Fermi energy:    4.806236;   22.000000 electrons
         Band energy:-0.276971E+03;  BLOECHL correction:   -0.203213
       DOS:  cpu time      0.3237: real time      0.0268
    CHARGE:  cpu time     22.6551: real time      1.3240
    MIXING:  cpu time      0.1037: real time      0.0017
    --------------------------------------------
      LOOP:  cpu time    348.2343: real time     20.0501

 eigenvalue-minimisations  :  5568
 total energy-change (2. order) : 0.1478281E+00  (-0.2130512E+00)
 number of electron      22.0000001 magnetization       0.0390281
 augmentation part        8.0579400 magnetization       0.0365690

 Broyden mixing:
  rms(total) = 0.24690E+00    rms(broyden)= 0.24690E+00
  rms(prec ) = 0.26591E+00
  weight for this iteration     100.00

 eigenvalues of (default mixing * dielectric matrix)
  average eigenvalue GAMMA=   1.0764
  1.6190  0.5338

 Free energy of the ion-electron system (eV)
  ---------------------------------------------------
  alpha Z        PSCENC =       247.02244180
  Ewald energy   TEWEN  =     -1908.57692376
  -Hartree energ DENC   =      -244.69847247
  -exchange      EXHF   =         0.00000000
  -V(xc)+E(xc)   XCENC  =        50.83088439
  PAW double counting   =      2621.06553038    -2595.64928536
  entropy T*S    EENTRO =         0.00000000
  eigenvalues    EBANDS =      -276.97072866
  atomic energy  EATOM  =      2086.78124273
  Solvation  Ediel_sol  =         0.00000000
  ---------------------------------------------------
  free energy    TOTEN  =       -20.19531095 eV

  energy without entropy =      -20.19531095  energy(sigma->0) =      -20.19531095


--------------------------------------------------------------------------------------------------------




--------------------------------------- Iteration      1(   8)  ---------------------------------------


    POTLOK:  cpu time      2.0526: real time      0.1523
    SETDIJ:  cpu time      1.0374: real time      0.2502
    EDDIAG:  cpu time     64.4963: real time      3.7710
  RMM-DIIS:  cpu time    263.6635: real time     14.9193
    ORTHCH:  cpu time      1.3081: real time      0.0827
 BZINTS: Fermi energy:    4.817411;   22.000000 electrons
         Band energy:-0.276432E+03;  BLOECHL correction:   -0.203400
       DOS:  cpu time      0.2868: real time      0.0294
    CHARGE:  cpu time     20.9080: real time      1.2400
    MIXING:  cpu time      0.0013: real time      0.0013
    --------------------------------------------
      LOOP:  cpu time    353.7541: real time     20.4462

 eigenvalue-minimisations  :  5986
 total energy-change (2. order) :-0.1127775E-01  (-0.1055805E-01)
 number of electron      22.0000001 magnetization       0.0244708
 augmentation part        8.0646356 magnetization       0.0163837

 Broyden mixing:
  rms(total) = 0.11911E+00    rms(broyden)= 0.11911E+00
  rms(prec ) = 0.14786E+00
  weight for this iteration     100.00

 eigenvalues of (default mixing * dielectric matrix)
  average eigenvalue GAMMA=   1.0704
  1.8399  0.6857  0.6857

 Free energy of the ion-electron system (eV)
  ---------------------------------------------------
  alpha Z        PSCENC =       247.02244180
  Ewald energy   TEWEN  =     -1908.57692376
  -Hartree energ DENC   =      -245.04321306
  -exchange      EXHF   =         0.00000000
  -V(xc)+E(xc)   XCENC  =        50.84113720
  PAW double counting   =      2669.39175269    -2644.19131760
  entropy T*S    EENTRO =         0.00000000
  eigenvalues    EBANDS =      -276.43170870
  atomic energy  EATOM  =      2086.78124273
  Solvation  Ediel_sol  =         0.00000000
  ---------------------------------------------------
  free energy    TOTEN  =       -20.20658870 eV

  energy without entropy =      -20.20658870  energy(sigma->0) =      -20.20658870


--------------------------------------------------------------------------------------------------------




--------------------------------------- Iteration      1(   9)  ---------------------------------------


    POTLOK:  cpu time      1.8746: real time      0.1401
    SETDIJ:  cpu time      1.0843: real time      0.2451
    EDDIAG:  cpu time     63.9007: real time      3.7433
  RMM-DIIS:  cpu time    262.0951: real time     14.8778
    ORTHCH:  cpu time      2.4125: real time      0.1409
 BZINTS: Fermi energy:    4.826439;   22.000000 electrons
         Band energy:-0.276012E+03;  BLOECHL correction:   -0.203550
       DOS:  cpu time      0.2695: real time      0.0271
    CHARGE:  cpu time     23.0870: real time      1.3306
    MIXING:  cpu time      0.0036: real time      0.0036
    --------------------------------------------
      LOOP:  cpu time    354.7273: real time     20.5084

 eigenvalue-minimisations  :  5967
 total energy-change (2. order) : 0.1083825E-03  (-0.2388072E-02)
 number of electron      22.0000001 magnetization       0.0188467
 augmentation part        8.0647017 magnetization       0.0156897

 Broyden mixing:
  rms(total) = 0.96765E-01    rms(broyden)= 0.96765E-01
  rms(prec ) = 0.12357E+00
  weight for this iteration     100.00

 eigenvalues of (default mixing * dielectric matrix)
  average eigenvalue GAMMA=   1.1050
  2.1125  0.8514  0.8514  0.6048

 Free energy of the ion-electron system (eV)
  ---------------------------------------------------
  alpha Z        PSCENC =       247.02244180
  Ewald energy   TEWEN  =     -1908.57692376
  -Hartree energ DENC   =      -245.40401815
  -exchange      EXHF   =         0.00000000
  -V(xc)+E(xc)   XCENC  =        50.85790052
  PAW double counting   =      2710.25558020    -2685.13091762
  entropy T*S    EENTRO =         0.00000000
  eigenvalues    EBANDS =      -276.01178604
  atomic energy  EATOM  =      2086.78124273
  Solvation  Ediel_sol  =         0.00000000
  ---------------------------------------------------
  free energy    TOTEN  =       -20.20648032 eV

  energy without entropy =      -20.20648032  energy(sigma->0) =      -20.20648032


--------------------------------------------------------------------------------------------------------




--------------------------------------- Iteration      1(  10)  ---------------------------------------


    POTLOK:  cpu time      1.4012: real time      0.1109
    SETDIJ:  cpu time      1.1494: real time      0.2544
    EDDIAG:  cpu time     63.0503: real time      3.6894
  RMM-DIIS:  cpu time    240.4480: real time     13.3002
    ORTHCH:  cpu time      1.3052: real time      0.0859
 BZINTS: Fermi energy:    4.848973;   22.000000 electrons
         Band energy:-0.275015E+03;  BLOECHL correction:   -0.203946
       DOS:  cpu time      0.2766: real time      0.0252
    CHARGE:  cpu time     22.9490: real time      1.3271
    MIXING:  cpu time      0.1181: real time      0.0014
    --------------------------------------------
      LOOP:  cpu time    330.6978: real time     18.7946

 eigenvalue-minimisations  :  4743
 total energy-change (2. order) : 0.3379133E-02  (-0.6158664E-03)
 number of electron      22.0000001 magnetization      -0.0056558
 augmentation part        8.0560689 magnetization      -0.0024650

 Broyden mixing:
  rms(total) = 0.66541E-01    rms(broyden)= 0.66541E-01
  rms(prec ) = 0.73462E-01
  weight for this iteration     100.00

 eigenvalues of (default mixing * dielectric matrix)
  average eigenvalue GAMMA=   1.3579
  2.6533  1.3727  1.3727  0.6294  0.7614

 Free energy of the ion-electron system (eV)
  ---------------------------------------------------
  alpha Z        PSCENC =       247.02244180
  Ewald energy   TEWEN  =     -1908.57692376
  -Hartree energ DENC   =      -246.38046641
  -exchange      EXHF   =         0.00000000
  -V(xc)+E(xc)   XCENC  =        50.90449212
  PAW double counting   =      2790.90094473    -2765.83938780
  entropy T*S    EENTRO =         0.00000000
  eigenvalues    EBANDS =      -275.01544460
  atomic energy  EATOM  =      2086.78124273
  Solvation  Ediel_sol  =         0.00000000
  ---------------------------------------------------
  free energy    TOTEN  =       -20.20310119 eV

  energy without entropy =      -20.20310119  energy(sigma->0) =      -20.20310119


--------------------------------------------------------------------------------------------------------




--------------------------------------- Iteration      1(  11)  ---------------------------------------


    POTLOK:  cpu time      1.7620: real time      0.1319
    SETDIJ:  cpu time      1.0471: real time      0.2531
    EDDIAG:  cpu time     62.6414: real time      3.6964
  RMM-DIIS:  cpu time    237.8488: real time     13.4852
    ORTHCH:  cpu time      2.3834: real time      0.1426
 BZINTS: Fermi energy:    4.859909;   22.000000 electrons
         Band energy:-0.274524E+03;  BLOECHL correction:   -0.204118
       DOS:  cpu time      0.2997: real time      0.0269
    CHARGE:  cpu time     22.4666: real time      1.3101
    MIXING:  cpu time      0.0016: real time      0.0016
    --------------------------------------------
      LOOP:  cpu time    328.4505: real time     19.0478

 eigenvalue-minimisations  :  5439
 total energy-change (2. order) :-0.2060468E-03  (-0.5292657E-03)
 number of electron      22.0000001 magnetization      -0.0041173
 augmentation part        8.0497249 magnetization      -0.0003843

 Broyden mixing:
  rms(total) = 0.44812E-02    rms(broyden)= 0.44812E-02
  rms(prec ) = 0.58594E-02
  weight for this iteration     100.00

 eigenvalues of (default mixing * dielectric matrix)
  average eigenvalue GAMMA=   1.2663
  2.5923  1.4479  1.4479  0.7799  0.6188  0.7112

 Free energy of the ion-electron system (eV)
  ---------------------------------------------------
  alpha Z        PSCENC =       247.02244180
  Ewald energy   TEWEN  =     -1908.57692376
  -Hartree energ DENC   =      -246.82132015
  -exchange      EXHF   =         0.00000000
  -V(xc)+E(xc)   XCENC  =        50.92527360
  PAW double counting   =      2865.05440086    -2840.06398480
  entropy T*S    EENTRO =         0.00000000
  eigenvalues    EBANDS =      -274.52443751
  atomic energy  EATOM  =      2086.78124273
  Solvation  Ediel_sol  =         0.00000000
  ---------------------------------------------------
  free energy    TOTEN  =       -20.20330723 eV

  energy without entropy =      -20.20330723  energy(sigma->0) =      -20.20330723


--------------------------------------------------------------------------------------------------------




--------------------------------------- Iteration      1(  12)  ---------------------------------------


    POTLOK:  cpu time      1.4736: real time      0.1184
    SETDIJ:  cpu time      1.1331: real time      0.2572
    EDDIAG:  cpu time     78.0895: real time      4.4206
  RMM-DIIS:  cpu time    199.6201: real time     11.1545
    ORTHCH:  cpu time      1.2498: real time      0.0776
 BZINTS: Fermi energy:    4.859962;   22.000000 electrons
         Band energy:-0.274521E+03;  BLOECHL correction:   -0.204115
       DOS:  cpu time      0.2882: real time      0.0278
    --------------------------------------------
      LOOP:  cpu time    281.8543: real time     16.0561

 eigenvalue-minimisations  :  3998
 total energy-change (2. order) :-0.7611750E-04  (-0.5825435E-04)
 number of electron      22.0000001 magnetization      -0.0041173
 augmentation part        8.0497249 magnetization      -0.0003843

 Free energy of the ion-electron system (eV)
  ---------------------------------------------------
  alpha Z        PSCENC =       247.02244180
  Ewald energy   TEWEN  =     -1908.57692376
  -Hartree energ DENC   =      -246.83981458
  -exchange      EXHF   =         0.00000000
  -V(xc)+E(xc)   XCENC  =        50.92617400
  PAW double counting   =      2864.05625563    -2839.05146505
  entropy T*S    EENTRO =         0.00000000
  eigenvalues    EBANDS =      -274.52129412
  atomic energy  EATOM  =      2086.78124273
  Solvation  Ediel_sol  =         0.00000000
  ---------------------------------------------------
  free energy    TOTEN  =       -20.20338335 eV

  energy without entropy =      -20.20338335  energy(sigma->0) =      -20.20338335


--------------------------------------------------------------------------------------------------------




 average (electrostatic) potential at core
  the test charge radii are     1.2125
  (the norm of the test charge is              1.0000)
       1 -35.1668       2 -35.1668



 E-fermi :   4.8600     XC(G=0): -12.3438     alpha+bet :-12.7651

 Fermi energy:         4.8599622536

 spin component 1

 k-point     1 :       0.0000    0.0000    0.0000
  band No.  band energies     occupation 
      1     -25.8516      1.00000
      2     -25.7863      1.00000
      3     -25.7194      1.00000
      4     -24.9693      1.00000
      5     -24.8981      1.00000
      6     -24.8392      1.00000
      7      -1.0594      1.00000
      8       1.2001      1.00000
      9       1.2146      1.00000
     10       4.9126      0.44481
     11       5.1575     -0.02449
     12       5.4876      0.00000
     13       8.0556      0.00000
     14       8.1049      0.00000
     15       9.9652      0.00000
     16      10.2972      0.00000

 k-point     2 :       0.1429    0.0000    0.0000
  band No.  band energies     occupation 
      1     -25.8010      1.00000
      2     -25.7891      1.00000
      3     -25.6803      1.00000
      4     -25.0040      1.00000
      5     -24.9933      1.00000
      6     -24.8885      1.00000
      7      -0.6499      1.00000
      8       1.4416      1.00000
      9       1.5399      1.00000
     10       4.9195      0.64440
     11       5.3535     -0.07077
     12       5.4177      0.00000
     13       7.4859      0.00000
     14       8.3042      0.00000
     15       8.8945      0.00000
     16       9.4317      0.00000

 k-point     3 :       0.2857    0.0000    0.0000
  band No.  band energies     occupation 
      1     -25.7716      1.00000
      2     -25.6593      1.00000
      3     -25.5715      1.00000
      4     -25.2275      1.00000
      5     -25.1029      1.00000
      6     -25.0273      1.00000
      7       0.4434      1.00000
      8       2.1121      1.00000
      9       2.2951      1.00000
     10       5.0379      0.71770
     11       5.3499     -0.15594
     12       5.9247      0.00000
     13       6.1386      0.00000
     14       7.3511      0.00000
     15       7.6865      0.00000
     16       8.7982      0.00000

 k-point     4 :       0.4286    0.0000    0.0000
  band No.  band energies     occupation 
      1     -25.6810      1.00000
      2     -25.4886      1.00000
      3     -25.4550      1.00000
      4     -25.4169      1.00000
      5     -25.2495      1.00000
      6     -25.2293      1.00000
      7       1.7972      1.00000
      8       2.6159      1.00000
      9       3.1885      1.00000
     10       4.5884      0.99697
     11       5.4591     -0.19044
     12       5.5483      0.00000
     13       6.1968      0.00000
     14       6.3270      0.00000
     15       6.8139      0.00000
     16       7.9033      0.00000

 k-point     5 :       0.0000    0.1429    0.0000
  band No.  band energies     occupation 
      1     -25.8284      1.00000
      2     -25.7410      1.00000
      3     -25.7008      1.00000
      4     -25.0370      1.00000
      5     -24.9404      1.00000
      6     -24.9082      1.00000
      7      -0.6494      1.00000
      8       1.4313      1.00000
      9       1.5485      1.00000
     10       4.9989      0.36715
     11       5.1304      0.03509
     12       5.5609      0.00000
     13       7.5215      0.00000
     14       8.2658      0.00000
     15       9.0787      0.00000
     16       9.1524      0.00000

 k-point     6 :       0.1429    0.1429    0.0000
  band No.  band energies     occupation 
      1     -25.8772      1.00000
      2     -25.6975      1.00000
      3     -25.6185      1.00000
      4     -25.1652      1.00000
      5     -25.0021      1.00000
      6     -24.8800      1.00000
      7      -0.2786      1.00000
      8       1.6772      1.00000
      9       1.8448      1.00000
     10       4.6800      0.99257
     11       5.0641      0.12580
     12       5.9991     -0.00652
     13       7.5816      0.00000
     14       7.8446      0.00000
     15       8.1139      0.00000
     16       8.2734      0.00000

 k-point     7 :       0.2857    0.1429    0.0000
  band No.  band energies     occupation 
      1     -25.9103      1.00000
      2     -25.5808      1.00000
      3     -25.4634      1.00000
      4     -25.4266      1.00000
      5     -25.1023      1.00000
      6     -24.9445      1.00000
      7       0.6791      1.00000
      8       2.1941      1.00000
      9       2.6360      1.00000
     10       4.4783      1.01298
     11       4.8381      0.72659
     12       6.3953     -0.05199
     13       6.7887      0.00000
     14       6.9168      0.00000
     15       6.9742      0.00000
     16       8.5990      0.00000

 k-point     8 :       0.4286    0.1429    0.0000
  band No.  band energies     occupation 
      1     -25.8548      1.00000
      2     -25.6844      1.00000
      3     -25.4188      1.00000
      4     -25.2779      1.00000
      5     -25.2482      1.00000
      6     -25.0914      1.00000
      7       1.7940      1.00000
      8       2.4731      1.00000
      9       3.4440      1.00000
     10       4.3418      1.00219
     11       4.6484      0.92810
     12       5.2874     -0.03628
     13       6.3987      0.00000
     14       6.4727      0.00000
     15       7.8801      0.00000
     16       9.0070      0.00000

 k-point     9 :       0.0000    0.2857    0.0000
  band No.  band energies     occupation 
      1     -25.7815      1.00000
      2     -25.6148      1.00000
      3     -25.6058      1.00000
      4     -25.2415      1.00000
      5     -25.0602      1.00000
      6     -25.0555      1.00000
      7       0.4451      1.00000
      8       2.1039      1.00000
      9       2.2963      1.00000
     10       5.1500      0.45302
     11       5.1527      0.05702
     12       5.9902      0.00000
     13       6.1836      0.00000
     14       7.4997      0.00000
     15       7.5228      0.00000
     16       8.7650      0.00000

 k-point    10 :       0.1429    0.2857    0.0000
  band No.  band energies     occupation 
      1     -25.9105      1.00000
      2     -25.5789      1.00000
      3     -25.4651      1.00000
      4     -25.4280      1.00000
      5     -25.1020      1.00000
      6     -24.9432      1.00000
      7       0.6801      1.00000
      8       2.1920      1.00000
      9       2.6325      1.00000
     10       4.4808      1.01847
     11       4.8246      0.75296
     12       6.4169     -0.04612
     13       6.8296      0.00000
     14       6.9054      0.00000
     15       6.9554      0.00000
     16       8.5767      0.00000

 k-point    11 :       0.2857    0.2857    0.0000
  band No.  band energies     occupation 
      1     -26.0404      1.00000
      2     -25.7143      1.00000
      3     -25.4970      1.00000
      4     -25.2641      1.00000
      5     -25.1670      1.00000
      6     -24.8960      1.00000
      7       1.1393      1.00000
      8       2.1336      1.00000
      9       3.6316      1.00000
     10       3.8770      1.00000
     11       4.8537      0.86463
     12       5.0720      0.07262
     13       6.5034      0.00000
     14       7.6929      0.00000
     15       8.0623      0.00000
     16       8.3651      0.00000

 k-point    12 :       0.4286    0.2857    0.0000
  band No.  band energies     occupation 
      1     -26.0647      1.00000
      2     -25.9501      1.00000
      3     -25.3838      1.00000
      4     -25.2660      1.00000
      5     -25.0829      1.00000
      6     -24.9502      1.00000
      7       1.5060      1.00000
      8       1.8504      1.00000
      9       3.7294      1.00000
     10       4.1150      1.00000
     11       4.6727      0.78502
     12       5.1421     -0.00330
     13       7.0034      0.00000
     14       7.5753      0.00000
     15       8.9207      0.00000
     16       9.3801      0.00000

 k-point    13 :       0.0000    0.4286    0.0000
  band No.  band energies     occupation 
      1     -25.6831      1.00000
      2     -25.4925      1.00000
      3     -25.4353      1.00000
      4     -25.4340      1.00000
      5     -25.2385      1.00000
      6     -25.2359      1.00000
      7       1.7983      1.00000
      8       2.6123      1.00000
      9       3.1818      1.00000
     10       4.5675      0.99553
     11       5.4980     -0.23366
     12       5.5263     -0.00399
     13       6.2582      0.00000
     14       6.2730      0.00000
     15       6.8301      0.00000
     16       7.9213      0.00000

 k-point    14 :       0.1429    0.4286    0.0000
  band No.  band energies     occupation 
      1     -25.8541      1.00000
      2     -25.6843      1.00000
      3     -25.4226      1.00000
      4     -25.2745      1.00000
      5     -25.2525      1.00000
      6     -25.0868      1.00000
      7       1.7934      1.00000
      8       2.4681      1.00000
      9       3.4435      1.00000
     10       4.3419      1.00450
     11       4.6452      0.92400
     12       5.2880     -0.03160
     13       6.4036      0.00000
     14       6.4770      0.00000
     15       7.8884      0.00000
     16       9.0237      0.00000

 k-point    15 :       0.2857    0.4286    0.0000
  band No.  band energies     occupation 
      1     -26.0642      1.00000
      2     -25.9497      1.00000
      3     -25.3859      1.00000
      4     -25.2680      1.00000
      5     -25.0813      1.00000
      6     -24.9484      1.00000
      7       1.5051      1.00000
      8       1.8486      1.00000
      9       3.7301      1.00000
     10       4.1247      1.00000
     11       4.6607      0.78748
     12       5.1445      0.00118
     13       7.0095      0.00000
     14       7.5731      0.00000
     15       8.9083      0.00000
     16       9.4473      0.00000

 k-point    16 :       0.4286    0.4286    0.0000
  band No.  band energies     occupation 
      1     -26.1728      1.00000
      2     -26.1326      1.00000
      3     -25.3394      1.00000
      4     -25.2973      1.00000
      5     -24.9500      1.00000
      6     -24.9019      1.00000
      7       1.2431      1.00000
      8       1.3533      1.00000
      9       3.2951      1.00000
     10       3.4286      1.00000
     11       6.1744     -0.16163
     12       6.5267     -0.07267
     13       7.7010      0.00000
     14       8.1115      0.00000
     15       8.6606      0.00000
     16       9.6558      0.00000

 k-point    17 :       0.0000    0.1429    0.1429
  band No.  band energies     occupation 
      1     -25.9226      1.00000
      2     -25.7111      1.00000
      3     -25.5836      1.00000
      4     -25.2084      1.00000
      5     -24.9647      1.00000
      6     -24.8439      1.00000
      7      -0.3076      1.00000
      8       1.6149      1.00000
      9       1.8597      1.00000
     10       4.5139      1.07214
     11       4.8824      0.56103
     12       6.2225     -0.01927
     13       7.7458      0.00000
     14       7.8053      0.00000
     15       8.1469      0.00000
     16       8.1478      0.00000

 k-point    18 :       0.1429    0.1429    0.1429
  band No.  band energies     occupation 
      1     -25.8690      1.00000
      2     -25.7949      1.00000
      3     -25.4846      1.00000
      4     -25.3025      1.00000
      5     -24.9693      1.00000
      6     -24.8968      1.00000
      7       0.0546      1.00000
      8       1.9712      1.00000
      9       2.0454      1.00000
     10       4.4418      1.05161
     11       4.5839      0.90574
     12       6.3099     -0.06619
     13       6.7214      0.00000
     14       7.8403      0.00000
     15       8.0344      0.00000
     16       9.2743      0.00000

 k-point    19 :       0.2857    0.1429    0.1429
  band No.  band energies     occupation 
      1     -25.8724      1.00000
      2     -25.7187      1.00000
      3     -25.5137      1.00000
      4     -25.3422      1.00000
      5     -25.0454      1.00000
      6     -25.0078      1.00000
      7       0.9600      1.00000
      8       2.5714      1.00000
      9       2.6996      1.00000
     10       4.2795      1.01522
     11       4.3698      1.02772
     12       5.1038      0.19566
     13       7.1117      0.00000
     14       7.6481      0.00000
     15       7.9319      0.00000
     16       8.5898      0.00000

 k-point    20 :       0.4286    0.1429    0.1429
  band No.  band energies     occupation 
      1     -25.8583      1.00000
      2     -25.7281      1.00000
      3     -25.5017      1.00000
      4     -25.2612      1.00000
      5     -25.2055      1.00000
      6     -25.0895      1.00000
      7       1.9410      1.00000
      8       2.6749      1.00000
      9       3.3147      1.00000
     10       3.9697      1.00564
     11       4.6497      0.93044
     12       4.8843      0.35535
     13       6.5552      0.00000
     14       6.8326      0.00000
     15       8.5031      0.00000
     16       8.9379      0.00000

 k-point    21 :       0.0000    0.2857    0.1429
  band No.  band energies     occupation 
      1     -25.9501      1.00000
      2     -25.6052      1.00000
      3     -25.4512      1.00000
      4     -25.4440      1.00000
      5     -25.0608      1.00000
      6     -24.9085      1.00000
      7       0.6379      1.00000
      8       2.0922      1.00000
      9       2.6512      1.00000
     10       4.3299      1.02756
     11       4.6427      0.95349
     12       6.3314     -0.05117
     13       6.9665      0.00000
     14       7.0008      0.00000
     15       7.1063      0.00000
     16       8.6904      0.00000

 k-point    22 :       0.1429    0.2857    0.1429
  band No.  band energies     occupation 
      1     -25.9436      1.00000
      2     -25.6716      1.00000
      3     -25.5331      1.00000
      4     -25.3421      1.00000
      5     -25.0877      1.00000
      6     -24.9154      1.00000
      7       0.9324      1.00000
      8       2.4597      1.00000
      9       2.7319      1.00000
     10       4.2103      1.01435
     11       4.2430      1.07327
     12       5.1706      0.09300
     13       7.3979      0.00000
     14       7.7003      0.00000
     15       7.8353      0.00000
     16       8.5439      0.00000

 k-point    23 :       0.2857    0.2857    0.1429
  band No.  band energies     occupation 
      1     -25.9792      1.00000
      2     -25.7226      1.00000
      3     -25.6309      1.00000
      4     -25.2086      1.00000
      5     -25.1576      1.00000
      6     -24.9573      1.00000
      7       1.5112      1.00000
      8       2.5538      1.00000
      9       3.5998      1.00000
     10       3.7487      1.00000
     11       4.2257      1.04128
     12       4.3049      0.91522
     13       7.4446      0.00000
     14       7.7895      0.00000
     15       8.4062      0.00000
     16       8.9641      0.00000

 k-point    24 :       0.4286    0.2857    0.1429
  band No.  band energies     occupation 
      1     -25.9950      1.00000
      2     -25.9049      1.00000
      3     -25.4697      1.00000
      4     -25.2899      1.00000
      5     -25.1024      1.00000
      6     -25.0226      1.00000
      7       1.8715      1.00000
      8       2.1972      1.00000
      9       3.6510      1.00000
     10       3.8163      1.00000
     11       4.6397      0.91558
     12       4.7882      0.54060
     13       7.2841      0.00000
     14       7.5177      0.00000
     15       8.7920      0.00000
     16       9.2606      0.00000

 k-point    25 :       0.0000    0.4286    0.1429
  band No.  band energies     occupation 
      1     -25.8779      1.00000
      2     -25.6823      1.00000
      3     -25.4468      1.00000
      4     -25.2854      1.00000
      5     -25.2128      1.00000
      6     -25.0661      1.00000
      7       1.7840      1.00000
      8       2.3992      1.00000
      9       3.4493      1.00000
     10       4.2515      1.00639
     11       4.5564      0.97852
     12       5.2895     -0.01421
     13       6.4889      0.00000
     14       6.5413      0.00000
     15       7.9167      0.00000
     16       9.1484      0.00000

[...]
  band No.  band energies     occupation 
      1     -26.1361      1.00000
      2     -26.0561      1.00000
      3     -25.4481      1.00000
      4     -25.2740      1.00000
      5     -25.0404      1.00000
      6     -24.9309      1.00000
      7       1.6484      1.00000
      8       1.6997      1.00000
      9       3.1956      1.00000
     10       3.3897      1.00000
     11       5.6366     -0.01867
     12       5.9690     -0.06447
     13       7.7746      0.00000
     14       8.3769      0.00000
     15       8.9059      0.00000
     16       8.9928      0.00000

 k-point    59 :       0.2857    0.4286    0.4286
  band No.  band energies     occupation 
      1     -25.9535      1.00000
      2     -25.9281      1.00000
      3     -25.5649      1.00000
      4     -25.3735      1.00000
      5     -25.1523      1.00000
      6     -25.1191      1.00000
      7       2.5588      1.00000
      8       2.6841      1.00000
      9       3.2603      1.00000
     10       3.3748      1.00000
     11       4.5424      0.90668
     12       5.1157      0.28310
     13       8.2811      0.00000
     14       8.6526      0.00000
     15       8.6529      0.00000
     16       8.8812      0.00000

 k-point    60 :       0.4286    0.4286    0.4286
  band No.  band energies     occupation 
      1     -25.7796      1.00000
      2     -25.6875      1.00000
      3     -25.6744      1.00000
      4     -25.4133      1.00000
      5     -25.3896      1.00000
      6     -25.3093      1.00000
      7       3.0220      1.00000
      8       3.4388      1.00000
      9       3.5678      1.00000
     10       3.9496      1.00000
     11       3.9563      1.00000
     12       4.2085      1.06096
     13       8.6804      0.00000
     14       8.7204      0.00000
     15       8.7986      0.00000
     16       8.8586      0.00000

 k-point    61 :       0.0000   -0.4286    0.4286
  band No.  band energies     occupation 
      1     -26.1557      1.00000
      2     -26.1383      1.00000
      3     -25.3510      1.00000
      4     -25.2707      1.00000
      5     -24.9635      1.00000
      6     -24.9174      1.00000
      7       1.2340      1.00000
      8       1.3784      1.00000
      9       3.3559      1.00000
     10       3.3838      1.00000
     11       6.0095     -0.18302
     12       6.7461     -0.00849
     13       7.8673      0.00000
     14       7.9719      0.00000
     15       8.4038      0.00000
     16       9.7667      0.00000

 k-point    62 :       0.1429   -0.4286    0.4286
  band No.  band energies     occupation 
      1     -26.1066      1.00000
      2     -26.0801      1.00000
      3     -25.3808      1.00000
      4     -25.3482      1.00000
      5     -25.0212      1.00000
      6     -24.9509      1.00000
      7       1.6425      1.00000
      8       1.7462      1.00000
      9       3.3111      1.00000
     10       3.3212      1.00000
     11       5.5829     -0.03568
     12       6.1088     -0.14633
     13       7.9910      0.00000
     14       8.0868      0.00000
     15       8.4659      0.00000
     16       9.2673      0.00000

 k-point    63 :       0.2857   -0.4286    0.4286
  band No.  band energies     occupation 
      1     -25.9799      1.00000
      2     -25.9168      1.00000
      3     -25.5197      1.00000
      4     -25.4265      1.00000
      5     -25.1833      1.00000
      6     -25.0639      1.00000
      7       2.5297      1.00000
      8       2.6739      1.00000
      9       3.2270      1.00000
     10       3.4964      1.00000
     11       4.6832      0.89861
     12       4.9356      0.43614
     13       8.3111      0.00000
     14       8.5448      0.00000
     15       8.6071      0.00000
     16       8.9734      0.00000

 k-point    64 :       0.4286   -0.4286    0.4286
  band No.  band energies     occupation 
      1     -25.8330      1.00000
      2     -25.6911      1.00000
      3     -25.6806      1.00000
      4     -25.4186      1.00000
      5     -25.3892      1.00000
      6     -25.2373      1.00000
      7       3.0637      1.00000
      8       3.3664      1.00000
      9       3.4855      1.00000
     10       3.8614      1.00000
     11       4.1132      1.00000
     12       4.1896      1.18297
     13       8.7074      0.00000
     14       8.7508      0.00000
     15       8.8342      0.00000
     16       8.8589      0.00000


--------------------------------------------------------------------------------------------------------


 soft charge-density along one line, spin component           1
         0         1         2         3         4         5         6         7         8         9
 total charge-density along one line

 soft charge-density along one line, spin component           2
         0         1         2         3         4         5         6         7         8         9
 total charge-density along one line

 pseudopotential strength for first ion, spin component:           1
-28.107  -0.006   0.000   5.977   0.005  -0.000  -0.000  -0.000
 -0.006 -28.107  -0.000   0.005   5.977   0.000  -0.000  -0.000
  0.000  -0.000 -28.105  -0.000   0.000   5.976  -0.000  -0.000
  5.977   0.005  -0.000   4.218  -0.003   0.000   0.000   0.000
  0.005   5.977   0.000  -0.003   4.218  -0.000  -0.000   0.000
 -0.000   0.000   5.976   0.000  -0.000   4.219   0.000  -0.000
 -0.000  -0.000  -0.000   0.000  -0.000   0.000  -6.357  -0.000
 -0.000  -0.000  -0.000   0.000   0.000  -0.000  -0.000  -6.357
  0.000  -0.000   0.000  -0.000   0.000  -0.000  -0.000  -0.001
 -0.000  -0.000  -0.000  -0.000   0.000   0.000  -0.001   0.000
  0.000  -0.000   0.000  -0.000   0.000  -0.000  -0.000   0.002
 -0.000  -0.000  -0.000   0.000  -0.000   0.000  -7.214  -0.000
 -0.000  -0.000  -0.000   0.000   0.000  -0.000  -0.000  -7.214
  0.000  -0.000   0.000  -0.000   0.000  -0.000  -0.000  -0.001
 -0.000  -0.000  -0.000  -0.000   0.000   0.000  -0.002   0.000
  0.000  -0.000   0.000  -0.000   0.000  -0.000  -0.000   0.002
  0.000   0.000   0.000   0.000   0.000   0.000  -0.000   0.003
 -0.000  -0.000  -0.000  -0.000  -0.000  -0.000   0.000  -0.007
 pseudopotential strength for first ion, spin component:           2
-28.107  -0.007   0.000   5.977   0.005  -0.000  -0.000  -0.000
 -0.007 -28.107  -0.000   0.005   5.977   0.000  -0.000  -0.000
  0.000  -0.000 -28.105  -0.000   0.000   5.976  -0.000  -0.000
  5.977   0.005  -0.000   4.218  -0.003   0.000   0.000   0.000
  0.005   5.977   0.000  -0.003   4.218  -0.000   0.000   0.000
 -0.000   0.000   5.976   0.000  -0.000   4.218   0.000   0.000
 -0.000  -0.000  -0.000   0.000   0.000   0.000  -6.357  -0.000
 -0.000  -0.000  -0.000   0.000   0.000   0.000  -0.000  -6.358
  0.000  -0.000   0.000  -0.000   0.000  -0.000  -0.000  -0.001
 -0.000  -0.000  -0.000   0.000   0.000   0.000  -0.001   0.000
  0.000  -0.000   0.000  -0.000   0.000  -0.000  -0.000   0.002
 -0.000  -0.000  -0.000   0.000   0.000   0.000  -7.214  -0.000
 -0.000  -0.000  -0.000   0.000   0.000   0.000  -0.000  -7.215
  0.000  -0.000   0.000  -0.000   0.000  -0.000  -0.000  -0.001
 -0.000  -0.000  -0.000   0.000   0.000   0.000  -0.002   0.000
  0.000  -0.000   0.000  -0.000   0.000  -0.000  -0.000   0.002
  0.000   0.000   0.000   0.000  -0.000   0.000  -0.000   0.003
 -0.000  -0.000  -0.000  -0.000  -0.000  -0.000   0.000  -0.007
 total augmentation occupancy for first ion, spin component:           1
  1.993  -0.000   0.000  -0.013  -0.002  -0.000   0.000   0.000   0.000  -0.000  -0.000  -0.000   0.000   0.000  -0.000   0.000
 -0.000   1.993   0.000  -0.002  -0.013  -0.000   0.000  -0.000   0.000   0.000   0.000   0.000  -0.000   0.000   0.000   0.000
  0.000   0.000   1.993  -0.000  -0.000  -0.013  -0.000  -0.000  -0.000   0.000   0.000   0.000   0.000   0.000   0.000   0.000
 -0.013  -0.002  -0.000   0.203   0.007   0.000   0.000   0.000   0.000   0.000   0.000   0.000   0.000   0.000   0.000   0.000
 -0.002  -0.013  -0.000   0.007   0.203   0.000   0.000   0.000   0.000   0.000   0.000   0.000   0.000   0.000   0.000   0.000
 -0.000  -0.000  -0.013   0.000   0.000   0.204   0.000   0.000   0.000   0.000   0.000   0.000   0.000   0.000   0.000   0.000
  0.000   0.000  -0.000   0.000   0.000   0.000   6.018   0.000  -0.000  -0.215   0.000  -3.353  -0.000   0.000   0.107  -0.000
  0.000  -0.000  -0.000   0.000   0.000   0.000   0.000   6.002  -0.051   0.000   0.089  -0.000  -3.345   0.037  -0.000  -0.065
  0.000   0.000  -0.000   0.000   0.000   0.000  -0.000  -0.051   5.631   0.000  -0.005   0.000   0.037  -3.320  -0.000   0.004
 -0.000   0.000   0.000   0.000   0.000   0.000  -0.215   0.000   0.000   6.018   0.000   0.107  -0.000  -0.000  -3.353  -0.000
  0.000  -0.000   0.000   0.000   0.000   0.000   0.000   0.089  -0.005   0.000   5.637  -0.000  -0.064   0.004  -0.000  -3.325
 -0.000   0.000  -0.000   0.000   0.000   0.000  -3.353  -0.000   0.000   0.107  -0.000   1.907   0.000  -0.000  -0.057  -0.000
  0.000   0.000   0.000   0.000   0.000   0.000  -0.000  -3.345   0.037  -0.000  -0.064   0.000   1.902  -0.025   0.000   0.044
  0.000   0.000   0.000  -0.000   0.000  -0.000   0.000   0.037  -3.320  -0.000   0.004  -0.000  -0.025   1.976   0.000  -0.002
 -0.000   0.000   0.000   0.000   0.000   0.000   0.107  -0.000  -0.000  -3.353  -0.000  -0.057   0.000   0.000   1.907   0.000
  0.000   0.000   0.000   0.000   0.000   0.000  -0.000  -0.065   0.004  -0.000  -3.325  -0.000   0.044  -0.002   0.000   1.979
  0.000   0.000   0.000   0.000   0.000   0.000  -0.000  -0.057  -0.002  -0.000   0.003  -0.000   0.026   0.001   0.000  -0.001
  0.000   0.000  -0.000  -0.000  -0.000   0.000  -0.000  -0.001  -0.000  -0.000   0.000   0.000   0.001   0.000   0.000  -0.000
 total augmentation occupancy for first ion, spin component:           2
  0.000  -0.000   0.000   0.000  -0.000   0.000   0.000   0.000   0.000   0.000   0.000   0.000   0.000   0.000   0.000   0.000
 -0.000   0.000   0.000  -0.000   0.000   0.000   0.000   0.000   0.000  -0.000   0.000   0.000   0.000   0.000   0.000   0.000
  0.000   0.000   0.000   0.000   0.000   0.000  -0.000  -0.000  -0.000   0.000  -0.000   0.000   0.000  -0.000   0.000   0.000
  0.000  -0.000   0.000  -0.000  -0.000  -0.000   0.000   0.000   0.000   0.000   0.000   0.000   0.000   0.000   0.000   0.000
 -0.000   0.000   0.000  -0.000  -0.000  -0.000   0.000   0.000   0.000   0.000   0.000   0.000   0.000   0.000   0.000   0.000
  0.000   0.000   0.000  -0.000  -0.000  -0.000   0.000   0.000   0.000   0.000   0.000   0.000   0.000   0.000   0.000   0.000
  0.000   0.000  -0.000   0.000   0.000   0.000  -0.001  -0.000   0.000  -0.001   0.000   0.001   0.000  -0.000   0.000  -0.000
  0.000   0.000   0.000   0.000   0.000   0.000  -0.000  -0.004  -0.000  -0.000   0.000   0.000   0.002   0.000   0.000  -0.000
  0.000   0.000  -0.000   0.000   0.000   0.000   0.000  -0.000  -0.006   0.000   0.000  -0.000   0.000   0.005  -0.000  -0.000
  0.000  -0.000  -0.000   0.000   0.000   0.000  -0.001  -0.000   0.000  -0.001  -0.000   0.000   0.000  -0.000   0.001   0.000
 -0.000   0.000  -0.000   0.000   0.000   0.000   0.000   0.000   0.000  -0.000  -0.007  -0.000  -0.000  -0.000   0.000   0.005
  0.000   0.000   0.000   0.000   0.000   0.000   0.001   0.000  -0.000   0.000  -0.000  -0.001  -0.000   0.000  -0.000   0.000
  0.000  -0.000  -0.000   0.000   0.000   0.000   0.000   0.002   0.000   0.000  -0.000  -0.000  -0.000   0.000  -0.000  -0.000
  0.000   0.000   0.000   0.000   0.000   0.000  -0.000   0.000   0.005  -0.000  -0.000   0.000   0.000  -0.004   0.000   0.000
  0.000   0.000  -0.000   0.000   0.000   0.000   0.000   0.000  -0.000   0.001   0.000  -0.000  -0.000   0.000  -0.001  -0.000
  0.000   0.000   0.000   0.000   0.000   0.000  -0.000  -0.000  -0.000   0.000   0.005   0.000  -0.000   0.000  -0.000  -0.004
  0.000   0.000  -0.000   0.000   0.000   0.000  -0.000  -0.001  -0.000  -0.000   0.000   0.000   0.001   0.000   0.000  -0.000
  0.000   0.000  -0.000   0.000   0.000  -0.000   0.000   0.000   0.000  -0.000  -0.000  -0.000  -0.000  -0.000   0.000   0.000


------------------------ aborting loop because EDIFF is reached ----------------------------------------





 total charge

# of ion       s       p       d       tot
------------------------------------------
    1        0.419   6.290   3.087   9.795
    2        0.419   6.290   3.087   9.795
--------------------------------------------------
tot          0.838  12.579   6.173  19.590



 magnetization (x)

# of ion       s       p       d       tot
------------------------------------------
    1       -0.000  -0.000  -0.001  -0.001
    2       -0.000  -0.000  -0.001  -0.001
--------------------------------------------------
tot         -0.000  -0.001  -0.001  -0.002

    CHARGE:  cpu time     20.7469: real time      1.2331
    FORLOC:  cpu time      0.0005: real time      0.0005
    FORNL :  cpu time    135.5810: real time      7.3712
    STRESS:  cpu time    319.7396: real time     18.1649
    FORCOR:  cpu time      1.1095: real time      0.0969
    FORHAR:  cpu time      0.1544: real time      0.0088
    MIXING:  cpu time      0.0017: real time      0.0017
    OFIELD:  cpu time      0.0000: real time      0.0000

  FORCE on cell =-STRESS in cart. coord.  units (eV):
  Direction    XX          YY          ZZ          XY          YZ          ZX
  --------------------------------------------------------------------------------------
  Alpha Z   247.02244   247.02244   247.02244
  Ewald    -635.31479  -636.63118  -636.63118    -0.00000   -15.59406    -0.00000
  Hartree    82.69894    82.07112    82.07112    -0.00000    -6.05364    -0.00000
  E(xc)     -95.07331   -95.07477   -95.07477    -0.00000     0.00504    -0.00000
  Local     202.26812   204.24847   204.24847     0.00000    21.21124    -0.00000
  n-local   -84.69085   -88.20165   -81.22600     1.12714     0.49694    -0.46771
  augment    53.55893    53.53971    53.53971    -0.00000    -0.05189     0.00000
  Kinetic   229.50727   222.43417   236.50953    -0.07472    -0.06590    -0.85457
  Fock        0.00000     0.00000     0.00000     0.00000     0.00000     0.00000
  -------------------------------------------------------------------------------------
  Total      -0.02324    -0.06618    -0.06618     0.00000    -0.05006     0.00000
  in kB      -1.01578    -2.89287    -2.89287     0.00000    -2.18820     0.00000
  external pressure =       -2.27 kB  Pullay stress =        0.00 kB


 VOLUME and BASIS-vectors are now :
 -----------------------------------------------------------------------------
  energy-cutoff  :      520.00
  volume of cell :       36.65
      direct lattice vectors                 reciprocal lattice vectors
     3.322222359  0.000000000  0.000000000     0.301003332 -0.000000000 -0.000000000
     0.000000000  3.322222359  0.066444447     0.000000000  0.301123782 -0.006022476
     0.000000000  0.066444447  3.322222359    -0.000000000 -0.006022476  0.301123782

  length of vectors
     3.322222359  3.322886737  3.322886737     0.301003332  0.301184000  0.301184000


 FORCES acting on ions
    electron-ion (+dipol)            ewald-force                    non-local-force                 convergence-correction
 -----------------------------------------------------------------------------------------------
   -.634E-14 -.114E-13 -.174E-13   -.108E-13 -.220E-14 -.235E-14   0.839E-22 0.294E-21 -.335E-21   0.238E-14 -.138E-13 0.327E-13
   0.113E-12 0.149E-11 0.164E-11   0.109E-13 -.352E-15 0.248E-14   -.244E-21 0.451E-22 0.635E-21   -.179E-13 -.531E-13 -.340E-13
 -----------------------------------------------------------------------------------------------
   0.106E-12 0.148E-11 0.163E-11   0.793E-16 -.255E-14 0.129E-15   -.160E-21 0.339E-21 0.300E-21   -.155E-13 -.669E-13 -.122E-14


 POSITION                                       TOTAL-FORCE (eV/Angst)
 -----------------------------------------------------------------------------------
      0.00000      0.00000      0.00000        -0.000000      0.000000      0.000000
      1.66111      1.69433      1.69433         0.000000     -0.000000     -0.000000
 -----------------------------------------------------------------------------------
    total drift:                                0.000000      0.000000      0.000000


--------------------------------------------------------------------------------------------------------



  FREE ENERGIE OF THE ION-ELECTRON SYSTEM (eV)
  ---------------------------------------------------
  free  energy   TOTEN  =       -20.20338335 eV

  energy  without entropy=      -20.20338335  energy(sigma->0) =      -20.20338335



--------------------------------------------------------------------------------------------------------


    POTLOK:  cpu time      2.4918: real time      0.3648


--------------------------------------------------------------------------------------------------------


     LOOP+:  cpu time   4545.2576: real time    262.7246
 -----------------------------------------------------------------------------
|                                                                             |
|           W    W    AA    RRRRR   N    N  II  N    N   GGGG   !!!           |
|           W    W   A  A   R    R  NN   N  II  NN   N  G    G  !!!           |
|           W    W  A    A  R    R  N N  N  II  N N  N  G       !!!           |
|           W WW W  AAAAAA  RRRRR   N  N N  II  N  N N  G  GGG   !            |
|           WW  WW  A    A  R   R   N   NN  II  N   NN  G    G                |
|           W    W  A    A  R    R  N    N  II  N    N   GGGG   !!!           |
|                                                                             |
|     Tetrahedron method does not include variations of the Fermi             |
|     occupations, so forces and stress will be inaccurate. We suggest        |
|     using a different smearing scheme ISMEAR = 1 or 2 for metals in         |
|     relaxations.                                                            |
|                                                                             |
 -----------------------------------------------------------------------------

    4ORBIT:  cpu time      0.0000: real time      0.0000



 total charge

# of ion       s       p       d       tot
------------------------------------------
    1        0.419   6.290   3.087   9.795
    2        0.419   6.290   3.087   9.795
--------------------------------------------------
tot          0.838  12.579   6.173  19.590



 magnetization (x)

# of ion       s       p       d       tot
------------------------------------------
    1       -0.000  -0.000  -0.001  -0.001
    2       -0.000  -0.000  -0.001  -0.001
--------------------------------------------------
tot         -0.000  -0.001  -0.001  -0.002

 BZINTS: Fermi energy:    4.859962;   22.000000 electrons
         Band energy:-0.274521E+03;  BLOECHL correction:   -0.204115

 total amount of memory used by VASP MPI-rank0    91171. kBytes
=======================================================================

   base      :      30000. kBytes
   nonlr-proj:       6259. kBytes
   fftplans  :       6192. kBytes
   grid      :      14776. kBytes
   one-center:         62. kBytes
   wavefun   :      33882. kBytes

  
  
 General timing and accounting informations for this job:
 ========================================================
  
                  Total CPU time used (sec):     4587.154
                            User time (sec):     4364.150
                          System time (sec):      223.004
                         Elapsed time (sec):      265.739
  
                   Maximum memory used (kb):      323364.
                   Average memory used (kb):          N/A
  
                          Minor page faults:      7126684
                          Major page faults:           95
                 Voluntary context switches:      2434784
