 vasp.6.4.1 05Apr23 (build Jul 24 2024 14:19:02) complex                         
 executed on             LinuxGNU date 2024.10.23  12:54:16
 running    1 mpi-ranks, with   24 threads/rank, on    1 nodes
 distrk:  each k-point on    1 cores,    1 groups
 distr:  one band on NCORE=   1 cores,    1 groups


--------------------------------------------------------------------------------------------------------


 INCAR:
   ISTART = 0
   ALGO = Fast
   EDIFF = 0.0001
   ENCUT = 520
   IBRION = -1
   ISIF = 2
   ISMEAR = -5
   ISPIN = 2
   LASPH = True
   LMAXMIX = 6
   LORBIT = 11
   LREAL = Auto
   LWAVE = False
   MAGMOM = 2*0.6
   NELM = 100
   NSW = 0
   PREC = Accurate
   SIGMA = 0.05

 POTCAR:    PAW_PBE Nb_pv 08Apr2002               
 POTCAR:    PAW_PBE Nb_pv 08Apr2002               
   SHA256 =  bac2b60850b34f8515cf56f9feae68b678e347865051052a0e1f5d2c6a691c0a Nb_pv/POTCAR          
   COPYR  = (c) Copyright 08Apr2002 Georg Kresse                                                    
   COPYR  = This file is part of the software VASP. Any use, copying, and all other rights are regul
   COPYR  = If you do not have a valid VASP license, you may not use, copy or distribute this file. 
   VRHFIN =Nb: 4p5s4d                                                                               
   LEXCH  = PE                                                                                      
   EATOM  =  1043.3917 eV,   76.6871 Ry                                                             
                                                                                                    
   TITEL  = PAW_PBE Nb_pv 08Apr2002                                                                 
   LULTRA =        F    use ultrasoft PP ?                                                          
   IUNSCR =        1    unscreen: 0-lin 1-nonlin 2-no                                               
   RPACOR =    2.200    partial core radius                                                         
   POMASS =   92.000; ZVAL   =   11.000    mass and valenz                                          
   RCORE  =    2.750    outmost cutoff radius                                                       
   RWIGS  =    2.840; RWIGS  =    1.503    wigner-seitz radius (au A)                               
   ENMAX  =  208.608; ENMIN  =  156.456 eV                                                          
   RCLOC  =    2.201    cutoff for local pot                                                        
   LCOR   =        T    correct aug charges                                                         
   LPAW   =        T    paw PP                                                                      
   EAUG   =  355.067                                                                                
   DEXC   =    0.000                                                                                
   RMAX   =    2.804    core radius for proj-oper                                                   
   RAUG   =    1.300    factor for augmentation sphere                                              
   RDEP   =    2.776    radius for radial grids                                                     
   RDEPT  =    2.198    core radius for aug-charge                                                  
                                                                                                    
   Atomic configuration                                                                             
   11 entries                                                                                       
     n  l   j            E        occ.                                                              
     1  0  0.50    -18805.2456   2.0000                                                             
     2  0  0.50     -2630.2869   2.0000                                                             
     2  1  1.50     -2348.4045   6.0000                                                             
     3  0  0.50      -438.8756   2.0000                                                             
     3  1  1.50      -346.7587   6.0000                                                             
     3  2  2.50      -196.2559  10.0000                                                             
     4  0  0.50       -58.3859   2.0000                                                             
     4  1  1.50       -34.5141   6.0000                                                             
     4  2  2.50        -3.0408   4.0000                                                             
     5  0  0.50        -3.9816   1.0000                                                             
     4  3  2.50        -1.3606   0.0000                                                             
   Description                                                                                      
     l       E           TYP  RCUT    TYP  RCUT                                                     
     1    -34.5140617     23  2.600                                                                 
     1     -1.3605826     23  2.600                                                                 
     2     -3.0407924     23  2.600                                                                 
     2     -1.4463597     23  2.600                                                                 
     0     -3.9816219     23  2.750                                                                 
     0     20.4087390     23  2.750                                                                 
  local pseudopotential read in
  partial core-charges read in
  partial kinetic energy density read in
  atomic valenz-charges read in
  non local Contribution for L=           1  read in
    real space projection operators read in
  non local Contribution for L=           1  read in
    real space projection operators read in
  non local Contribution for L=           2  read in
    real space projection operators read in
  non local Contribution for L=           2  read in
    real space projection operators read in
  non local Contribution for L=           0  read in
    real space projection operators read in
  non local Contribution for L=           0  read in
    real space projection operators read in
    PAW grid and wavefunctions read in

   number of l-projection  operators is LMAX  =           6
   number of lm-projection operators is LMMAX =          18

 -----------------------------------------------------------------------------
|                                                                             |
|               ----> ADVICE to this user running VASP <----                  |
|                                                                             |
|     You have a (more or less) 'small supercell' and for smaller cells       |
|     it is recommended to use the reciprocal-space projection scheme!        |
|     The real-space optimization is not efficient for small cells and it     |
|     is also less accurate ...                                               |
|     Therefore, set LREAL=.FALSE. in the INCAR file.                         |
|                                                                             |
 -----------------------------------------------------------------------------

 Optimization of the real space projectors (new method)

 maximal supplied QI-value         = 13.61
 optimisation between [QCUT,QGAM] = [ 11.57, 23.27] = [ 37.45,151.59] Ry 
 Optimized for a Real-space Cutoff    1.63 Angstroem

   l    n(q)    QCUT    max X(q) W(low)/X(q) W(high)/X(q)  e(spline) 
   1     11    11.565     4.545    0.12E-04    0.18E-04    0.64E-07
   1     11    11.565     6.014    0.42E-04    0.48E-04    0.13E-06
   2     10    11.565   266.542    0.24E-03    0.87E-04    0.13E-05
   2     10    11.565   232.726    0.24E-03    0.87E-04    0.13E-05
   0     11    11.565    38.050    0.76E-04    0.32E-05    0.94E-06
   0     11    11.565    16.565    0.58E-04    0.25E-05    0.73E-06
  PAW_PBE Nb_pv 08Apr2002               :
 energy of atom  1       EATOM=-1043.3917
 kinetic energy error for atom=    0.0011 (will be added to EATOM!!)


 POSCAR: Generated POSCAR
  positions in direct lattice
  velocities in cartesian coordinates
 exchange correlation table for  LEXCH =        8
   RHO(1)=    0.500       N(1)  =     2000
   RHO(2)=  100.500       N(2)  =     4000



--------------------------------------------------------------------------------------------------------


 ion  position               nearest neighbor table
   1  0.000  0.000  0.000-   2 2.89   2 2.89   2 2.89   2 2.89   2 2.89   2 2.89   2 2.89   2 2.89

   2  0.500  0.500  0.500-   1 2.89   1 2.89   1 2.89   1 2.89   1 2.89   1 2.89   1 2.89   1 2.89


  LATTYP: Found a simple tetragonal cell.
 ALAT       =     3.3217793369
 C/A-ratio  =     1.0100000000
  
  Lattice vectors:
  
 A1 = (  -3.3217793369,   0.0000000000,  -0.0000000000)
 A2 = (   0.0000000000,   0.0000000000,   3.3217793369)
 A3 = (   0.0000000000,   3.3549971303,   0.0000000000)


Analysis of symmetry for initial positions (statically):
=====================================================================
 Subroutine PRICEL returns following result:
 
  LATTYP: Found a body centered tetragonal cell.
 ALAT       =     3.3217793369
 C/A-ratio  =     1.0100000000
  
  Lattice vectors:
  
 A1 = (   1.6608896685,   1.6774985651,  -1.6608896685)
 A2 = (  -1.6608896685,   1.6774985651,   1.6608896685)
 A3 = (   1.6608896685,  -1.6774985651,   1.6608896685)
 
   2 primitive cells build up your supercell.
 

 Routine SETGRP: Setting up the symmetry group for a 
 simple tetragonal supercell.


 Subroutine GETGRP returns: Found 16 space group operations
 (whereof 16 operations were pure point group operations)
 out of a pool of 16 trial point group operations.


The static configuration has the point symmetry D_4h.


Analysis of symmetry for dynamics (positions and initial velocities):
=====================================================================
 Subroutine PRICEL returns following result:
 
  LATTYP: Found a body centered tetragonal cell.
 ALAT       =     3.3217793369
 C/A-ratio  =     1.0100000000
  
  Lattice vectors:
  
 A1 = (   1.6608896685,   1.6774985651,  -1.6608896685)
 A2 = (  -1.6608896685,   1.6774985651,   1.6608896685)
 A3 = (   1.6608896685,  -1.6774985651,   1.6608896685)
 
   2 primitive cells build up your supercell.
 

 Routine SETGRP: Setting up the symmetry group for a 
 simple tetragonal supercell.


 Subroutine GETGRP returns: Found 16 space group operations
 (whereof 16 operations were pure point group operations)
 out of a pool of 16 trial point group operations.


The dynamic configuration has the point symmetry D_4h.


Analysis of structural, dynamic, and magnetic symmetry:
=====================================================================
 Subroutine PRICEL returns following result:
 
  LATTYP: Found a body centered tetragonal cell.
 ALAT       =     3.3217793369
 C/A-ratio  =     1.0100000000
  
  Lattice vectors:
  
 A1 = (   1.6608896685,   1.6774985651,  -1.6608896685)
 A2 = (  -1.6608896685,   1.6774985651,   1.6608896685)
 A3 = (   1.6608896685,  -1.6774985651,   1.6608896685)
 
   2 primitive cells build up your supercell.
 

 Routine SETGRP: Setting up the symmetry group for a 
 simple tetragonal supercell.


 Subroutine GETGRP returns: Found 16 space group operations
 (whereof 16 operations were pure point group operations)
 out of a pool of 16 trial point group operations.


The overall configuration has the point symmetry D_4h.


 Subroutine INISYM returns: Found 16 space group operations
 (whereof 16 operations are pure point group operations),
 and found     2 'primitive' translations


----------------------------------------------------------------------------------------

                                     Primitive cell                                     

  volume of cell :      18.5099

  direct lattice vectors                    reciprocal lattice vectors
     1.660889668  1.677498565 -1.660889668     0.301043477  0.298062848  0.000000000
    -1.660889668  1.677498565  1.660889668     0.000000000  0.298062848  0.301043477
     1.660889668 -1.677498565  1.660889668     0.301043477 -0.000000000  0.301043477

  length of vectors
     2.886366300  2.886366300  2.886366300     0.423637388  0.423637388  0.425739767

  position of ions in fractional coordinates (direct lattice)
     0.000000000  0.000000000  0.000000000

  ion indices of the primitive-cell ions
   primitive index   ion index
                 1           1

----------------------------------------------------------------------------------------



 KPOINTS: pymatgen with grid density = 869 / numbe

Automatic generation of k-mesh.
 Grid dimensions read from file:
 generate k-points for:    7    7    7

 Generating k-lattice:

  Cartesian coordinates                     Fractional coordinates (reciprocal lattice)
     0.043006211 -0.000000000  0.000000000     0.142857143  0.000000000  0.000000000
     0.000000000  0.042580407  0.000000000     0.000000000  0.142857143  0.000000000
    -0.000000000 -0.000000000  0.043006211    -0.000000000  0.000000000  0.142857143

  Length of vectors
     0.043006211  0.042580407  0.043006211

  Shift w.r.t. Gamma in fractional coordinates (k-lattice)
     0.000000000  0.000000000  0.000000000

 TETIRR: Found    500 inequivalent tetrahedra from     2058
 
 Subroutine IBZKPT returns following result:
 ===========================================
 
 Found     40 irreducible k-points:
 
 Following reciprocal coordinates:
            Coordinates               Weight
  0.000000  0.000000  0.000000      1.000000
  0.142857  0.000000  0.000000      4.000000
  0.285714  0.000000  0.000000      4.000000
  0.428571  0.000000  0.000000      4.000000
  0.000000  0.142857  0.000000      2.000000
  0.142857  0.142857  0.000000      8.000000
  0.285714  0.142857  0.000000      8.000000
  0.428571  0.142857  0.000000      8.000000
  0.000000  0.285714  0.000000      2.000000
  0.142857  0.285714  0.000000      8.000000
  0.285714  0.285714  0.000000      8.000000
  0.428571  0.285714  0.000000      8.000000
  0.000000  0.428571  0.000000      2.000000
  0.142857  0.428571  0.000000      8.000000
  0.285714  0.428571  0.000000      8.000000
  0.428571  0.428571  0.000000      8.000000
  0.142857  0.000000  0.142857      4.000000
  0.285714  0.000000  0.142857      8.000000
  0.428571  0.000000  0.142857      8.000000
  0.142857  0.142857  0.142857      8.000000
  0.285714  0.142857  0.142857     16.000000
  0.428571  0.142857  0.142857     16.000000
  0.142857  0.285714  0.142857      8.000000
  0.285714  0.285714  0.142857     16.000000
  0.428571  0.285714  0.142857     16.000000
  0.142857  0.428571  0.142857      8.000000
  0.285714  0.428571  0.142857     16.000000
  0.428571  0.428571  0.142857     16.000000
  0.285714  0.000000  0.285714      4.000000
  0.428571  0.000000  0.285714      8.000000
  0.285714  0.142857  0.285714      8.000000
  0.428571  0.142857  0.285714     16.000000
  0.285714  0.285714  0.285714      8.000000
  0.428571  0.285714  0.285714     16.000000
  0.285714  0.428571  0.285714      8.000000
  0.428571  0.428571  0.285714     16.000000
  0.428571  0.000000  0.428571      4.000000
  0.428571  0.142857  0.428571      8.000000
  0.428571  0.285714  0.428571      8.000000
  0.428571  0.428571  0.428571      8.000000
 
 Following cartesian coordinates:
            Coordinates               Weight
  0.000000  0.000000  0.000000      1.000000
  0.043006  0.000000  0.000000      4.000000
  0.086012  0.000000  0.000000      4.000000
  0.129019  0.000000  0.000000      4.000000
  0.000000  0.042580  0.000000      2.000000
  0.043006  0.042580  0.000000      8.000000
  0.086012  0.042580  0.000000      8.000000
  0.129019  0.042580  0.000000      8.000000
  0.000000  0.085161  0.000000      2.000000
  0.043006  0.085161  0.000000      8.000000
  0.086012  0.085161  0.000000      8.000000
  0.129019  0.085161  0.000000      8.000000
  0.000000  0.127741  0.000000      2.000000
  0.043006  0.127741  0.000000      8.000000
  0.086012  0.127741  0.000000      8.000000
  0.129019  0.127741  0.000000      8.000000
  0.043006  0.000000  0.043006      4.000000
  0.086012  0.000000  0.043006      8.000000
  0.129019  0.000000  0.043006      8.000000
  0.043006  0.042580  0.043006      8.000000
  0.086012  0.042580  0.043006     16.000000
  0.129019  0.042580  0.043006     16.000000
  0.043006  0.085161  0.043006      8.000000
  0.086012  0.085161  0.043006     16.000000
  0.129019  0.085161  0.043006     16.000000
  0.043006  0.127741  0.043006      8.000000
  0.086012  0.127741  0.043006     16.000000
  0.129019  0.127741  0.043006     16.000000
  0.086012  0.000000  0.086012      4.000000
  0.129019  0.000000  0.086012      8.000000
  0.086012  0.042580  0.086012      8.000000
  0.129019  0.042580  0.086012     16.000000
  0.086012  0.085161  0.086012      8.000000
  0.129019  0.085161  0.086012     16.000000
  0.086012  0.127741  0.086012      8.000000
  0.129019  0.127741  0.086012     16.000000
  0.129019  0.000000  0.129019      4.000000
  0.129019  0.042580  0.129019      8.000000
  0.129019  0.085161  0.129019      8.000000
  0.129019  0.127741  0.129019      8.000000
 


--------------------------------------------------------------------------------------------------------




 Dimension of arrays:
   k-points           NKPTS =     40   k-points in BZ     NKDIM =     40   number of bands    NBANDS=     16
   number of dos      NEDOS =    301   number of ions     NIONS =      2
   non local maximal  LDIM  =      6   non local SUM 2l+1 LMDIM =     18
   total plane-waves  NPLWV =  21952
   max r-space proj   IRMAX =  10752   max aug-charges    IRDMAX=  36704
   dimension x,y,z NGX =    28 NGY =   28 NGZ =   28
   dimension x,y,z NGXF=    56 NGYF=   56 NGZF=   56
   support grid    NGXF=    56 NGYF=   56 NGZF=   56
   ions per type =               2
   NGX,Y,Z   is equivalent  to a cutoff of  14.01, 13.87, 14.01 a.u.
   NGXF,Y,Z  is equivalent  to a cutoff of  28.03, 27.75, 28.03 a.u.

 SYSTEM =  unknown system                          
 POSCAR =  Generated POSCAR                        

 Startparameter for this run:
   NWRITE =      2    write-flag & timer
   PREC   = accura    normal or accurate (medium, high low for compatibility)
   ISTART =      0    job   : 0-new  1-cont  2-samecut
   ICHARG =      2    charge: 1-file 2-atom 10-const
   ISPIN  =      2    spin polarized calculation?
   LNONCOLLINEAR =      F non collinear calculations
   LSORBIT =      F    spin-orbit coupling
   INIWAV =      1    electr: 0-lowe 1-rand  2-diag
   LASPH  =      T    aspherical Exc in radial PAW
 Electronic Relaxation 1
   ENCUT  =  520.0 eV  38.22 Ry    6.18 a.u.   6.18  6.24  6.18*2*pi/ulx,y,z
   ENINI  =  520.0     initial cutoff
   ENAUG  =  355.1 eV  augmentation charge cutoff
   NELM   =    100;   NELMIN=  2; NELMDL= -5     # of ELM steps 
   EDIFF  = 0.1E-03   stopping-criterion for ELM
   LREAL  =      T    real-space projection
   NLSPLINE    = F    spline interpolate recip. space projectors
   LCOMPAT=      F    compatible to vasp.4.4
   GGA_COMPAT  = T    GGA compatible to vasp.4.4-vasp.4.6
   LMAXPAW     = -100 max onsite density
   LMAXMIX     =    6 max onsite mixed and CHGCAR
   VOSKOWN=      0    Vosko Wilk Nusair interpolation
   ROPT   =   -0.00025
 Ionic relaxation
   EDIFFG = 0.1E-02   stopping-criterion for IOM
   NSW    =      0    number of steps for IOM
   NBLOCK =      1;   KBLOCK =      1    inner block; outer block 
   IBRION =     -1    ionic relax: 0-MD 1-quasi-New 2-CG
   NFREE  =      0    steps in history (QN), initial steepest desc. (CG)
   ISIF   =      2    stress and relaxation
   IWAVPR =     10    prediction:  0-non 1-charg 2-wave 3-comb
   ISYM   =      2    0-nonsym 1-usesym 2-fastsym
   LCORR  =      T    Harris-Foulkes like correction to forces

   POTIM  = 0.5000    time-step for ionic-motion
   TEIN   =    0.0    initial temperature
   TEBEG  =    0.0;   TEEND  =   0.0 temperature during run
   SMASS  =  -3.00    Nose mass-parameter (am)
   estimated Nose-frequenzy (Omega)   =  0.10E-29 period in steps = 0.13E+47 mass=  -0.252E-27a.u.
   SCALEE = 1.0000    scale energy and forces
   NPACO  =    256;   APACO  = 10.0  distance and # of slots for P.C.
   PSTRESS=    0.0 pullay stress

  Mass of Ions in am
   POMASS =  92.00
  Ionic Valenz
   ZVAL   =  11.00
  Atomic Wigner-Seitz radii
   RWIGS  =  -1.00
  virtual crystal weights 
   VCA    =   1.00
   NELECT =      22.0000    total number of electrons
   NUPDOWN=      -1.0000    fix difference up-down

 DOS related values:
   EMIN   =  10.00;   EMAX   =-10.00  energy-range for DOS
   EFERMI =   0.00;   METHOD = LEGACY      
   ISMEAR =    -5;   SIGMA  =   0.05  broadening in eV -4-tet -1-fermi 0-gaus

 Electronic relaxation 2 (details)
   IALGO  =     68    algorithm
   LDIAG  =      T    sub-space diagonalisation (order eigenvalues)
   LSUBROT=      F    optimize rotation matrix (better conditioning)
   TURBO    =      0    0=normal 1=particle mesh
   IRESTART =      0    0=no restart 2=restart with 2 vectors
   NREBOOT  =      0    no. of reboots
   NMIN     =      0    reboot dimension
   EREF     =   0.00    reference energy to select bands
   IMIX   =      4    mixing-type and parameters
     AMIX     =   0.40;   BMIX     =  1.00
     AMIX_MAG =   1.60;   BMIX_MAG =  1.00
     AMIN     =   0.10
     WC   =   100.;   INIMIX=   1;  MIXPRE=   1;  MAXMIX= -45

 Intra band minimization:
   WEIMIN = 0.0000     energy-eigenvalue tresh-hold
   EBREAK =  0.16E-05  absolut break condition
   DEPER  =   0.30     relativ break condition  

   TIME   =   0.40     timestep for ELM

  volume/ion in A,a.u.               =      18.51       124.91
  Fermi-wavevector in a.u.,A,eV,Ry     =   1.376378  2.600978 25.775112  1.894417
  Thomas-Fermi vector in A             =   2.501628

 Write flags
   LWAVE        =      F    write WAVECAR
   LDOWNSAMPLE  =      F    k-point downsampling of WAVECAR
   LCHARG       =      T    write CHGCAR
   LVTOT        =      F    write LOCPOT, total local potential
   LVHAR        =      F    write LOCPOT, Hartree potential only
   LELF         =      F    write electronic localiz. function (ELF)
   LORBIT       =     11    0 simple, 1 ext, 2 COOP (PROOUT), +10 PAW based schemes


 Dipole corrections
   LMONO  =      F    monopole corrections only (constant potential shift)
   LDIPOL =      F    correct potential (dipole corrections)
   IDIPOL =      0    1-x, 2-y, 3-z, 4-all directions 
   EPSILON=  1.0000000 bulk dielectric constant

 Exchange correlation treatment:
   GGA     =    --    GGA type
   LEXCH   =     8    internal setting for exchange type
   LIBXC   =     F    Libxc                    
   VOSKOWN =     0    Vosko Wilk Nusair interpolation
   LHFCALC =     F    Hartree Fock is set to
   LHFONE  =     F    Hartree Fock one center treatment
   AEXX    =    0.0000 exact exchange contribution

 Linear response parameters
   LEPSILON=     F    determine dielectric tensor
   LRPA    =     F    only Hartree local field effects (RPA)
   LNABLA  =     F    use nabla operator in PAW spheres
   LVEL    =     F    velocity operator in full k-point grid
   CSHIFT  =0.1000    complex shift for real part using Kramers Kronig
   OMEGAMAX=  -1.0    maximum frequency
   DEG_THRESHOLD= 0.2000000E-02 threshold for treating states as degnerate
   RTIME   =   -0.100 relaxation time in fs
  (WPLASMAI=    0.000 imaginary part of plasma frequency in eV, 0.658/RTIME)
   DFIELD  = 0.0000000 0.0000000 0.0000000 field for delta impulse in time

  Optional k-point grid parameters
   LKPOINTS_OPT  =     F    use optional k-point grid
   KPOINTS_OPT_MODE=     1    mode for optional k-point grid

 Orbital magnetization related:
   ORBITALMAG=     F  switch on orbital magnetization
   LCHIMAG   =     F  perturbation theory with respect to B field
   DQ        =  0.001000  dq finite difference perturbation B field
   LLRAUG    =     F  two centre corrections for induced B field
   LBONE     =     F  B-component reconstruction in AE one-centre
   LVGVCALC  =     T  calculate vGv susceptibility
   LVGVAPPL  =     F  apply vGv susceptibility instead of pGv for G=0

 Random number generation:
   RANDOM_GENERATOR = DEFAULT
   PCG_SEED         = not used


--------------------------------------------------------------------------------------------------------


 Static calculation
 charge density and potential will be updated during run
 spin polarized calculation
 RMM-DIIS sequential band-by-band and
  variant of blocked Davidson during initial phase
 perform sub-space diagonalisation
    before iterative eigenvector-optimisation
 modified Broyden-mixing scheme, WC =      100.0
 initial mixing is a Kerker type mixing with AMIX =  0.4000 and BMIX =      1.0000
 Hartree-type preconditioning will be used
 using additional bands            5
 real space projection scheme for non local part
 use partial core corrections
 calculate Harris-corrections to forces   (improved forces if not selfconsistent)
 use gradient corrections 
 use of overlap-Matrix (Vanderbilt PP)
 Fermi weights with tetrahedron method with Bloechl corrections


--------------------------------------------------------------------------------------------------------


  energy-cutoff  :      520.00
  volume of cell :       37.02
      direct lattice vectors                 reciprocal lattice vectors
     3.321779337  0.000000000  0.000000000     0.301043477 -0.000000000  0.000000000
     0.000000000  3.354997130  0.000000000     0.000000000  0.298062848  0.000000000
     0.000000000  0.000000000  3.321779337    -0.000000000 -0.000000000  0.301043477

  length of vectors
     3.321779337  3.354997130  3.321779337     0.301043477  0.298062848  0.301043477



 k-points in units of 2pi/SCALE and weight: pymatgen with grid density = 869 / numbe
   0.00000000  0.00000000  0.00000000       0.003
   0.04300621  0.00000000  0.00000000       0.012
   0.08601242  0.00000000  0.00000000       0.012
   0.12901863  0.00000000  0.00000000       0.012
   0.00000000  0.04258041  0.00000000       0.006
   0.04300621  0.04258041  0.00000000       0.023
   0.08601242  0.04258041  0.00000000       0.023
   0.12901863  0.04258041  0.00000000       0.023
   0.00000000  0.08516081  0.00000000       0.006
   0.04300621  0.08516081  0.00000000       0.023
   0.08601242  0.08516081  0.00000000       0.023
   0.12901863  0.08516081  0.00000000       0.023
   0.00000000  0.12774122  0.00000000       0.006
   0.04300621  0.12774122  0.00000000       0.023
   0.08601242  0.12774122  0.00000000       0.023
   0.12901863  0.12774122  0.00000000       0.023
   0.04300621  0.00000000  0.04300621       0.012
   0.08601242  0.00000000  0.04300621       0.023
   0.12901863  0.00000000  0.04300621       0.023
   0.04300621  0.04258041  0.04300621       0.023
   0.08601242  0.04258041  0.04300621       0.047
   0.12901863  0.04258041  0.04300621       0.047
   0.04300621  0.08516081  0.04300621       0.023
   0.08601242  0.08516081  0.04300621       0.047
   0.12901863  0.08516081  0.04300621       0.047
   0.04300621  0.12774122  0.04300621       0.023
   0.08601242  0.12774122  0.04300621       0.047
   0.12901863  0.12774122  0.04300621       0.047
   0.08601242  0.00000000  0.08601242       0.012
   0.12901863  0.00000000  0.08601242       0.023
   0.08601242  0.04258041  0.08601242       0.023
   0.12901863  0.04258041  0.08601242       0.047
   0.08601242  0.08516081  0.08601242       0.023
   0.12901863  0.08516081  0.08601242       0.047
   0.08601242  0.12774122  0.08601242       0.023
   0.12901863  0.12774122  0.08601242       0.047
   0.12901863  0.00000000  0.12901863       0.012
   0.12901863  0.04258041  0.12901863       0.023
   0.12901863  0.08516081  0.12901863       0.023
   0.12901863  0.12774122  0.12901863       0.023

 k-points in reciprocal lattice and weights: pymatgen with grid density = 869 / numbe
   0.00000000  0.00000000  0.00000000       0.003
   0.14285714  0.00000000  0.00000000       0.012
   0.28571429  0.00000000  0.00000000       0.012
   0.42857143  0.00000000  0.00000000       0.012
   0.00000000  0.14285714  0.00000000       0.006
   0.14285714  0.14285714  0.00000000       0.023
   0.28571429  0.14285714  0.00000000       0.023
   0.42857143  0.14285714  0.00000000       0.023
   0.00000000  0.28571429  0.00000000       0.006
   0.14285714  0.28571429  0.00000000       0.023
   0.28571429  0.28571429  0.00000000       0.023
   0.42857143  0.28571429  0.00000000       0.023
   0.00000000  0.42857143  0.00000000       0.006
   0.14285714  0.42857143  0.00000000       0.023
   0.28571429  0.42857143  0.00000000       0.023
   0.42857143  0.42857143  0.00000000       0.023
   0.14285714  0.00000000  0.14285714       0.012
   0.28571429  0.00000000  0.14285714       0.023
   0.42857143  0.00000000  0.14285714       0.023
   0.14285714  0.14285714  0.14285714       0.023
   0.28571429  0.14285714  0.14285714       0.047
   0.42857143  0.14285714  0.14285714       0.047
   0.14285714  0.28571429  0.14285714       0.023
   0.28571429  0.28571429  0.14285714       0.047
   0.42857143  0.28571429  0.14285714       0.047
   0.14285714  0.42857143  0.14285714       0.023
   0.28571429  0.42857143  0.14285714       0.047
   0.42857143  0.42857143  0.14285714       0.047
   0.28571429  0.00000000  0.28571429       0.012
   0.42857143  0.00000000  0.28571429       0.023
   0.28571429  0.14285714  0.28571429       0.023
   0.42857143  0.14285714  0.28571429       0.047
   0.28571429  0.28571429  0.28571429       0.023
   0.42857143  0.28571429  0.28571429       0.047
   0.28571429  0.42857143  0.28571429       0.023
   0.42857143  0.42857143  0.28571429       0.047
   0.42857143  0.00000000  0.42857143       0.012
   0.42857143  0.14285714  0.42857143       0.023
   0.42857143  0.28571429  0.42857143       0.023
   0.42857143  0.42857143  0.42857143       0.023

 position of ions in fractional coordinates (direct lattice) 
   0.00000000  0.00000000  0.00000000
   0.50000000  0.50000000  0.50000000

 position of ions in cartesian coordinates  (Angst):
   0.00000000  0.00000000  0.00000000
   1.66088967  1.67749857  1.66088967



--------------------------------------------------------------------------------------------------------


 k-point   1 :   0.0000 0.0000 0.0000  plane waves:    1021
 k-point   2 :   0.1429 0.0000 0.0000  plane waves:     989
 k-point   3 :   0.2857 0.0000 0.0000  plane waves:     994
 k-point   4 :   0.4286 0.0000 0.0000  plane waves:     998
 k-point   5 :   0.0000 0.1429 0.0000  plane waves:     989
 k-point   6 :   0.1429 0.1429 0.0000  plane waves:     993
 k-point   7 :   0.2857 0.1429 0.0000  plane waves:    1004
 k-point   8 :   0.4286 0.1429 0.0000  plane waves:     994
 k-point   9 :   0.0000 0.2857 0.0000  plane waves:     996
 k-point  10 :   0.1429 0.2857 0.0000  plane waves:     995
 k-point  11 :   0.2857 0.2857 0.0000  plane waves:     993
 k-point  12 :   0.4286 0.2857 0.0000  plane waves:     995
 k-point  13 :   0.0000 0.4286 0.0000  plane waves:    1000
 k-point  14 :   0.1429 0.4286 0.0000  plane waves:    1000
 k-point  15 :   0.2857 0.4286 0.0000  plane waves:     991
 k-point  16 :   0.4286 0.4286 0.0000  plane waves:    1000
 k-point  17 :   0.1429 0.0000 0.1429  plane waves:     985
 k-point  18 :   0.2857 0.0000 0.1429  plane waves:     995
 k-point  19 :   0.4286 0.0000 0.1429  plane waves:     995
 k-point  20 :   0.1429 0.1429 0.1429  plane waves:     991
 k-point  21 :   0.2857 0.1429 0.1429  plane waves:     996
 k-point  22 :   0.4286 0.1429 0.1429  plane waves:     995
 k-point  23 :   0.1429 0.2857 0.1429  plane waves:     995
 k-point  24 :   0.2857 0.2857 0.1429  plane waves:     995
 k-point  25 :   0.4286 0.2857 0.1429  plane waves:     999
 k-point  26 :   0.1429 0.4286 0.1429  plane waves:     995
 k-point  27 :   0.2857 0.4286 0.1429  plane waves:     998
 k-point  28 :   0.4286 0.4286 0.1429  plane waves:     997
 k-point  29 :   0.2857 0.0000 0.2857  plane waves:     993
 k-point  30 :   0.4286 0.0000 0.2857  plane waves:     996
 k-point  31 :   0.2857 0.1429 0.2857  plane waves:    1000
 k-point  32 :   0.4286 0.1429 0.2857  plane waves:    1001
 k-point  33 :   0.2857 0.2857 0.2857  plane waves:     997
 k-point  34 :   0.4286 0.2857 0.2857  plane waves:     996
 k-point  35 :   0.2857 0.4286 0.2857  plane waves:     996
 k-point  36 :   0.4286 0.4286 0.2857  plane waves:    1000
 k-point  37 :   0.4286 0.0000 0.4286  plane waves:    1012
 k-point  38 :   0.4286 0.1429 0.4286  plane waves:    1007
 k-point  39 :   0.4286 0.2857 0.4286  plane waves:     997
 k-point  40 :   0.4286 0.4286 0.4286  plane waves:    1006

 maximum and minimum number of plane-waves per node :      1021      985

 maximum number of plane-waves:      1021
 maximum index in each direction: 
   IXMAX=    6   IYMAX=    6   IZMAX=    6
   IXMIN=   -6   IYMIN=   -6   IZMIN=   -6


 serial   3D FFT for wavefunctions
 parallel 3D FFT for charge:
    minimum data exchange during FFTs selected (reduces bandwidth)


 total amount of memory used by VASP MPI-rank0    78812. kBytes
=======================================================================

   base      :      30000. kBytes
   nonlr-proj:       6135. kBytes
   fftplans  :       6192. kBytes
   grid      :      14776. kBytes
   one-center:         62. kBytes
   wavefun   :      21647. kBytes

     INWAV:  cpu time      0.0065: real time      0.0001
 Broyden mixing: mesh for mixing (old mesh)
   NGX = 13   NGY = 13   NGZ = 13
  (NGX  = 56   NGY  = 56   NGZ  = 56)
  gives a total of   2197 points

 initial charge density was supplied:
 charge density of overlapping atoms calculated
 number of electron      22.0000000 magnetization       1.2000000
 keeping initial charge density in first step


--------------------------------------------------------------------------------------------------------


 Maximum index for non-local projection operator         1126
 Maximum index for augmentation-charges        35401 (set IRDMAX)


--------------------------------------------------------------------------------------------------------


 First call to EWALD:  gamma=   0.532
 Maximum number of real-space cells 3x 3x 3
 Maximum number of reciprocal cells 3x 3x 3

    FEWALD:  cpu time      0.1507: real time      0.0055


--------------------------------------- Ionic step        1  -------------------------------------------




--------------------------------------- Iteration      1(   1)  ---------------------------------------


    POTLOK:  cpu time      1.8975: real time      0.1515
    SETDIJ:  cpu time      1.2151: real time      0.2688
     EDDAV:  cpu time    606.7568: real time     30.0479
 BZINTS: Fermi energy:   23.490554;   22.000000 electrons
         Band energy:-0.284234E+02;  BLOECHL correction:   -0.423198
       DOS:  cpu time      0.2656: real time      0.0269
    --------------------------------------------
      LOOP:  cpu time    610.1350: real time     30.4953

 eigenvalue-minimisations  :  2784
 total energy-change (2. order) : 0.2030220E+03  (-0.1157780E+04)
 number of electron      22.0000000 magnetization       1.2000000
 augmentation part       22.0000000 magnetization       1.2000000

 Free energy of the ion-electron system (eV)
  ---------------------------------------------------
  alpha Z        PSCENC =       244.57667505
  Ewald energy   TEWEN  =     -1902.56446717
  -Hartree energ DENC   =      -281.79227234
  -exchange      EXHF   =         0.00000000
  -V(xc)+E(xc)   XCENC  =        52.53566775
  PAW double counting   =      1671.32378679    -1639.41528309
  entropy T*S    EENTRO =         0.00000000
  eigenvalues    EBANDS =       -28.42338146
  atomic energy  EATOM  =      2086.78124273
  Solvation  Ediel_sol  =         0.00000000
  ---------------------------------------------------
  free energy    TOTEN  =       203.02196825 eV

  energy without entropy =      203.02196825  energy(sigma->0) =      203.02196825


--------------------------------------------------------------------------------------------------------




--------------------------------------- Iteration      1(   2)  ---------------------------------------


     EDDAV:  cpu time    361.0553: real time     18.9042
 BZINTS: Fermi energy:    7.212846;   22.000000 electrons
         Band energy:-0.241573E+03;  BLOECHL correction:   -0.308146
       DOS:  cpu time      0.2649: real time      0.0301
    --------------------------------------------
      LOOP:  cpu time    361.3201: real time     18.9342

 eigenvalue-minimisations  :  2664
 total energy-change (2. order) :-0.2131501E+03  (-0.2108900E+03)
 number of electron      22.0000000 magnetization       1.2000000
 augmentation part       22.0000000 magnetization       1.2000000

 Free energy of the ion-electron system (eV)
  ---------------------------------------------------
  alpha Z        PSCENC =       244.57667505
  Ewald energy   TEWEN  =     -1902.56446717
  -Hartree energ DENC   =      -281.79227234
  -exchange      EXHF   =         0.00000000
  -V(xc)+E(xc)   XCENC  =        52.53566775
  PAW double counting   =      1671.32378679    -1639.41528309
  entropy T*S    EENTRO =         0.00000000
  eigenvalues    EBANDS =      -241.57349142
  atomic energy  EATOM  =      2086.78124273
  Solvation  Ediel_sol  =         0.00000000
  ---------------------------------------------------
  free energy    TOTEN  =       -10.12814171 eV

  energy without entropy =      -10.12814171  energy(sigma->0) =      -10.12814171


--------------------------------------------------------------------------------------------------------




--------------------------------------- Iteration      1(   3)  ---------------------------------------


     EDDAV:  cpu time    671.3344: real time     33.9834
 BZINTS: Fermi energy:    5.404345;   22.000000 electrons
         Band energy:-0.252410E+03;  BLOECHL correction:   -0.207334
       DOS:  cpu time      0.3122: real time      0.0300
    --------------------------------------------
      LOOP:  cpu time    671.6467: real time     34.0134

 eigenvalue-minimisations  :  4184
 total energy-change (2. order) :-0.1083678E+02  (-0.1020481E+02)
 number of electron      22.0000000 magnetization       1.2000000
 augmentation part       22.0000000 magnetization       1.2000000

 Free energy of the ion-electron system (eV)
  ---------------------------------------------------
  alpha Z        PSCENC =       244.57667505
  Ewald energy   TEWEN  =     -1902.56446717
  -Hartree energ DENC   =      -281.79227234
  -exchange      EXHF   =         0.00000000
  -V(xc)+E(xc)   XCENC  =        52.53566775
  PAW double counting   =      1671.32378679    -1639.41528309
  entropy T*S    EENTRO =         0.00000000
  eigenvalues    EBANDS =      -252.41026890
  atomic energy  EATOM  =      2086.78124273
  Solvation  Ediel_sol  =         0.00000000
  ---------------------------------------------------
  free energy    TOTEN  =       -20.96491918 eV

  energy without entropy =      -20.96491918  energy(sigma->0) =      -20.96491918


--------------------------------------------------------------------------------------------------------




--------------------------------------- Iteration      1(   4)  ---------------------------------------


     EDDAV:  cpu time    709.6003: real time     35.0968
 BZINTS: Fermi energy:    5.373582;   22.000000 electrons
         Band energy:-0.252605E+03;  BLOECHL correction:   -0.206012
       DOS:  cpu time      0.2660: real time      0.0272
    --------------------------------------------
      LOOP:  cpu time    709.8663: real time     35.1240

 eigenvalue-minimisations  :  3240
 total energy-change (2. order) :-0.1944183E+00  (-0.1907401E+00)
 number of electron      22.0000000 magnetization       1.2000000
 augmentation part       22.0000000 magnetization       1.2000000

 Free energy of the ion-electron system (eV)
  ---------------------------------------------------
  alpha Z        PSCENC =       244.57667505
  Ewald energy   TEWEN  =     -1902.56446717
  -Hartree energ DENC   =      -281.79227234
  -exchange      EXHF   =         0.00000000
  -V(xc)+E(xc)   XCENC  =        52.53566775
  PAW double counting   =      1671.32378679    -1639.41528309
  entropy T*S    EENTRO =         0.00000000
  eigenvalues    EBANDS =      -252.60468717
  atomic energy  EATOM  =      2086.78124273
  Solvation  Ediel_sol  =         0.00000000
  ---------------------------------------------------
  free energy    TOTEN  =       -21.15933746 eV

  energy without entropy =      -21.15933746  energy(sigma->0) =      -21.15933746


--------------------------------------------------------------------------------------------------------




--------------------------------------- Iteration      1(   5)  ---------------------------------------


     EDDAV:  cpu time    356.5234: real time     19.6574
 BZINTS: Fermi energy:    5.372703;   22.000000 electrons
         Band energy:-0.252610E+03;  BLOECHL correction:   -0.205784
       DOS:  cpu time      0.2430: real time      0.0258
    CHARGE:  cpu time     16.2185: real time      0.9395
    MIXING:  cpu time      0.0012: real time      0.0012
    --------------------------------------------
      LOOP:  cpu time    372.9861: real time     20.6238

 eigenvalue-minimisations  :  3880
 total energy-change (2. order) :-0.5246552E-02  (-0.5298841E-02)
 number of electron      22.0000002 magnetization       0.3521517
 augmentation part        7.7533208 magnetization      -0.0538845

 Broyden mixing:
  rms(total) = 0.23577E+01    rms(broyden)= 0.23577E+01
  rms(prec ) = 0.27892E+01
  weight for this iteration     100.00

 Free energy of the ion-electron system (eV)
  ---------------------------------------------------
  alpha Z        PSCENC =       244.57667505
  Ewald energy   TEWEN  =     -1902.56446717
  -Hartree energ DENC   =      -281.79227234
  -exchange      EXHF   =         0.00000000
  -V(xc)+E(xc)   XCENC  =        52.53566775
  PAW double counting   =      1671.32378679    -1639.41528309
  entropy T*S    EENTRO =         0.00000000
  eigenvalues    EBANDS =      -252.60993372
  atomic energy  EATOM  =      2086.78124273
  Solvation  Ediel_sol  =         0.00000000
  ---------------------------------------------------
  free energy    TOTEN  =       -21.16458401 eV

  energy without entropy =      -21.16458401  energy(sigma->0) =      -21.16458401


--------------------------------------------------------------------------------------------------------




--------------------------------------- Iteration      1(   6)  ---------------------------------------


    POTLOK:  cpu time      2.0075: real time      0.1555
    SETDIJ:  cpu time      1.1704: real time      0.2640
    EDDIAG:  cpu time     60.1806: real time      3.3729
  RMM-DIIS:  cpu time    230.7821: real time     11.9254
    ORTHCH:  cpu time      1.9599: real time      0.1120
 BZINTS: Fermi energy:    5.016295;   22.000000 electrons
         Band energy:-0.266883E+03;  BLOECHL correction:   -0.208399
       DOS:  cpu time      0.2747: real time      0.0302
    CHARGE:  cpu time     34.0300: real time      1.7992
    MIXING:  cpu time      0.0013: real time      0.0013
    --------------------------------------------
      LOOP:  cpu time    330.4064: real time     17.6604

 eigenvalue-minimisations  :  2821
 total energy-change (2. order) : 0.8208448E+00  (-0.8250597E-01)
 number of electron      22.0000002 magnetization       0.1592582
 augmentation part        7.8822165 magnetization      -0.0562242

 Broyden mixing:
  rms(total) = 0.88566E+00    rms(broyden)= 0.88566E+00
  rms(prec ) = 0.11741E+01
  weight for this iteration     100.00

 eigenvalues of (default mixing * dielectric matrix)
  average eigenvalue GAMMA=   1.4875
  1.4875

 Free energy of the ion-electron system (eV)
  ---------------------------------------------------
  alpha Z        PSCENC =       244.57667505
  Ewald energy   TEWEN  =     -1902.56446717
  -Hartree energ DENC   =      -262.19151940
  -exchange      EXHF   =         0.00000000
  -V(xc)+E(xc)   XCENC  =        51.50900994
  PAW double counting   =      2173.45961863    -2145.03093061
  entropy T*S    EENTRO =         0.00000000
  eigenvalues    EBANDS =      -266.88336833
  atomic energy  EATOM  =      2086.78124273
  Solvation  Ediel_sol  =         0.00000000
  ---------------------------------------------------
  free energy    TOTEN  =       -20.34373916 eV

  energy without entropy =      -20.34373916  energy(sigma->0) =      -20.34373916


--------------------------------------------------------------------------------------------------------




--------------------------------------- Iteration      1(   7)  ---------------------------------------


    POTLOK:  cpu time      1.9225: real time      0.1345
    SETDIJ:  cpu time      1.1751: real time      0.2745
    EDDIAG:  cpu time     69.8734: real time      3.7632
  RMM-DIIS:  cpu time    226.1653: real time     12.0622
    ORTHCH:  cpu time      1.0095: real time      0.0655
 BZINTS: Fermi energy:    4.719085;   22.000000 electrons
         Band energy:-0.278776E+03;  BLOECHL correction:   -0.207312
       DOS:  cpu time      0.3207: real time      0.0299
    CHARGE:  cpu time     22.3690: real time      1.2388
    MIXING:  cpu time      0.0045: real time      0.0032
    --------------------------------------------
      LOOP:  cpu time    322.8400: real time     17.5720

 eigenvalue-minimisations  :  3485
 total energy-change (2. order) : 0.1449132E+00  (-0.2203574E+00)
 number of electron      22.0000002 magnetization       0.0362704
 augmentation part        8.0562803 magnetization       0.0349423

 Broyden mixing:
  rms(total) = 0.24037E+00    rms(broyden)= 0.24037E+00
  rms(prec ) = 0.25893E+00
  weight for this iteration     100.00

 eigenvalues of (default mixing * dielectric matrix)
  average eigenvalue GAMMA=   1.0694
  1.6023  0.5365

 Free energy of the ion-electron system (eV)
  ---------------------------------------------------
  alpha Z        PSCENC =       244.57667505
  Ewald energy   TEWEN  =     -1902.56446717
  -Hartree energ DENC   =      -246.38617722
  -exchange      EXHF   =         0.00000000
  -V(xc)+E(xc)   XCENC  =        50.72371349
  PAW double counting   =      2583.92971825    -2558.48312310
  entropy T*S    EENTRO =         0.00000000
  eigenvalues    EBANDS =      -278.77640803
  atomic energy  EATOM  =      2086.78124273
  Solvation  Ediel_sol  =         0.00000000
  ---------------------------------------------------
  free energy    TOTEN  =       -20.19882601 eV

  energy without entropy =      -20.19882601  energy(sigma->0) =      -20.19882601


--------------------------------------------------------------------------------------------------------




--------------------------------------- Iteration      1(   8)  ---------------------------------------


    POTLOK:  cpu time      1.5480: real time      0.1203
    SETDIJ:  cpu time      1.0953: real time      0.2558
    EDDIAG:  cpu time     85.7695: real time      4.5394
  RMM-DIIS:  cpu time    282.7924: real time     14.7241
    ORTHCH:  cpu time      2.0853: real time      0.1114
 BZINTS: Fermi energy:    4.730311;   22.000000 electrons
         Band energy:-0.278224E+03;  BLOECHL correction:   -0.207474
       DOS:  cpu time      0.2256: real time      0.0284
    CHARGE:  cpu time     17.0967: real time      0.9915
    MIXING:  cpu time      0.0014: real time      0.0014
    --------------------------------------------
      LOOP:  cpu time    390.6142: real time     20.7723

 eigenvalue-minimisations  :  3706
 total energy-change (2. order) :-0.1163973E-01  (-0.1107254E-01)
 number of electron      22.0000002 magnetization       0.0229885
 augmentation part        8.0632277 magnetization       0.0152806

 Broyden mixing:
  rms(total) = 0.11639E+00    rms(broyden)= 0.11639E+00
  rms(prec ) = 0.14457E+00
  weight for this iteration     100.00

 eigenvalues of (default mixing * dielectric matrix)
  average eigenvalue GAMMA=   1.0626
  1.8179  0.6850  0.6850

 Free energy of the ion-electron system (eV)
  ---------------------------------------------------
  alpha Z        PSCENC =       244.57667505
  Ewald energy   TEWEN  =     -1902.56446717
  -Hartree energ DENC   =      -246.74358145
  -exchange      EXHF   =         0.00000000
  -V(xc)+E(xc)   XCENC  =        50.73459272
  PAW double counting   =      2630.54611767    -2605.31750885
  entropy T*S    EENTRO =         0.00000000
  eigenvalues    EBANDS =      -278.22353645
  atomic energy  EATOM  =      2086.78124273
  Solvation  Ediel_sol  =         0.00000000
  ---------------------------------------------------
  free energy    TOTEN  =       -20.21046574 eV

  energy without entropy =      -20.21046574  energy(sigma->0) =      -20.21046574


--------------------------------------------------------------------------------------------------------




--------------------------------------- Iteration      1(   9)  ---------------------------------------


    POTLOK:  cpu time      1.2101: real time      0.1036
    SETDIJ:  cpu time      1.0780: real time      0.2593
    EDDIAG:  cpu time     56.9975: real time      3.1998
  RMM-DIIS:  cpu time    210.8031: real time     11.5042
    ORTHCH:  cpu time      1.1046: real time      0.0626
 BZINTS: Fermi energy:    4.739236;   22.000000 electrons
         Band energy:-0.277802E+03;  BLOECHL correction:   -0.207599
       DOS:  cpu time      0.2341: real time      0.0234
    CHARGE:  cpu time     14.7343: real time      0.8613
    MIXING:  cpu time      0.0022: real time      0.0022
    --------------------------------------------
      LOOP:  cpu time    286.1640: real time     16.0163

 eigenvalue-minimisations  :  3702
 total energy-change (2. order) : 0.4498214E-04  (-0.2477622E-02)
 number of electron      22.0000002 magnetization       0.0186341
 augmentation part        8.0634236 magnetization       0.0158986

 Broyden mixing:
  rms(total) = 0.94612E-01    rms(broyden)= 0.94612E-01
  rms(prec ) = 0.12106E+00
  weight for this iteration     100.00

 eigenvalues of (default mixing * dielectric matrix)
  average eigenvalue GAMMA=   1.0722
  2.0515  0.8221  0.8221  0.5931

 Free energy of the ion-electron system (eV)
  ---------------------------------------------------
  alpha Z        PSCENC =       244.57667505
  Ewald energy   TEWEN  =     -1902.56446717
  -Hartree energ DENC   =      -247.10892630
  -exchange      EXHF   =         0.00000000
  -V(xc)+E(xc)   XCENC  =        50.75156917
  PAW double counting   =      2669.60599212    -2644.45052328
  entropy T*S    EENTRO =         0.00000000
  eigenvalues    EBANDS =      -277.80198308
  atomic energy  EATOM  =      2086.78124273
  Solvation  Ediel_sol  =         0.00000000
  ---------------------------------------------------
  free energy    TOTEN  =       -20.21042076 eV

  energy without entropy =      -20.21042076  energy(sigma->0) =      -20.21042076


--------------------------------------------------------------------------------------------------------




--------------------------------------- Iteration      1(  10)  ---------------------------------------


    POTLOK:  cpu time      1.7178: real time      0.1251
    SETDIJ:  cpu time      1.1309: real time      0.2629
    EDDIAG:  cpu time     71.0373: real time      3.9530
  RMM-DIIS:  cpu time    289.4627: real time     14.8040
    ORTHCH:  cpu time      0.6465: real time      0.0432
 BZINTS: Fermi energy:    4.759784;   22.000000 electrons
         Band energy:-0.276886E+03;  BLOECHL correction:   -0.207908
       DOS:  cpu time      0.2754: real time      0.0292
    CHARGE:  cpu time     19.4239: real time      1.0880
    MIXING:  cpu time      0.0017: real time      0.0017
    --------------------------------------------
      LOOP:  cpu time    383.6962: real time     20.3071

 eigenvalue-minimisations  :  2991
 total energy-change (2. order) : 0.3250847E-02  (-0.5674403E-03)
 number of electron      22.0000002 magnetization      -0.0068398
 augmentation part        8.0554442 magnetization      -0.0034049

 Broyden mixing:
  rms(total) = 0.67837E-01    rms(broyden)= 0.67837E-01
  rms(prec ) = 0.75888E-01
  weight for this iteration     100.00

 eigenvalues of (default mixing * dielectric matrix)
  average eigenvalue GAMMA=   1.3508
  2.6312  1.3710  1.3710  0.6262  0.7545

 Free energy of the ion-electron system (eV)
  ---------------------------------------------------
  alpha Z        PSCENC =       244.57667505
  Ewald energy   TEWEN  =     -1902.56446717
  -Hartree energ DENC   =      -248.00820514
  -exchange      EXHF   =         0.00000000
  -V(xc)+E(xc)   XCENC  =        50.79443206
  PAW double counting   =      2742.16326257    -2717.06436735
  entropy T*S    EENTRO =         0.00000000
  eigenvalues    EBANDS =      -276.88574267
  atomic energy  EATOM  =      2086.78124273
  Solvation  Ediel_sol  =         0.00000000
  ---------------------------------------------------
  free energy    TOTEN  =       -20.20716991 eV

  energy without entropy =      -20.20716991  energy(sigma->0) =      -20.20716991


--------------------------------------------------------------------------------------------------------




--------------------------------------- Iteration      1(  11)  ---------------------------------------


    POTLOK:  cpu time      2.1802: real time      0.1505
    SETDIJ:  cpu time      1.1135: real time      0.2524
    EDDIAG:  cpu time     60.0296: real time      3.3697
  RMM-DIIS:  cpu time    220.8820: real time     11.8575
    ORTHCH:  cpu time      0.7586: real time      0.0461
 BZINTS: Fermi energy:    4.772282;   22.000000 electrons
         Band energy:-0.276319E+03;  BLOECHL correction:   -0.208086
       DOS:  cpu time      0.2429: real time      0.0305
    CHARGE:  cpu time     20.1108: real time      1.1121
    MIXING:  cpu time      0.0031: real time      0.0029
    --------------------------------------------
      LOOP:  cpu time    305.3207: real time     16.8217

 eigenvalue-minimisations  :  3379
 total energy-change (2. order) :-0.1789544E-04  (-0.5621906E-03)
 number of electron      22.0000002 magnetization      -0.0049193
 augmentation part        8.0483829 magnetization      -0.0003850

 Broyden mixing:
  rms(total) = 0.38589E-02    rms(broyden)= 0.38589E-02
  rms(prec ) = 0.45621E-02
  weight for this iteration     100.00

 eigenvalues of (default mixing * dielectric matrix)
  average eigenvalue GAMMA=   1.2706
  2.5901  1.4508  1.4508  0.7971  0.6175  0.7172

 Free energy of the ion-electron system (eV)
  ---------------------------------------------------
  alpha Z        PSCENC =       244.57667505
  Ewald energy   TEWEN  =     -1902.56446717
  -Hartree energ DENC   =      -248.52252601
  -exchange      EXHF   =         0.00000000
  -V(xc)+E(xc)   XCENC  =        50.81867229
  PAW double counting   =      2821.54749336    -2796.52515764
  entropy T*S    EENTRO =         0.00000000
  eigenvalues    EBANDS =      -276.31912043
  atomic energy  EATOM  =      2086.78124273
  Solvation  Ediel_sol  =         0.00000000
  ---------------------------------------------------
  free energy    TOTEN  =       -20.20718781 eV

  energy without entropy =      -20.20718781  energy(sigma->0) =      -20.20718781


--------------------------------------------------------------------------------------------------------




--------------------------------------- Iteration      1(  12)  ---------------------------------------


    POTLOK:  cpu time      1.8931: real time      0.1343
    SETDIJ:  cpu time      1.2307: real time      0.2598
    EDDIAG:  cpu time     48.7085: real time      2.8085
  RMM-DIIS:  cpu time    163.5732: real time      8.8641
    ORTHCH:  cpu time      2.0021: real time      0.1121
 BZINTS: Fermi energy:    4.772385;   22.000000 electrons
         Band energy:-0.276315E+03;  BLOECHL correction:   -0.208090
       DOS:  cpu time      0.1911: real time      0.0326
    --------------------------------------------
      LOOP:  cpu time    217.5987: real time     12.2115

 eigenvalue-minimisations  :  2422
 total energy-change (2. order) :-0.7743862E-04  (-0.6199145E-04)
 number of electron      22.0000002 magnetization      -0.0049193
 augmentation part        8.0483829 magnetization      -0.0003850

 Free energy of the ion-electron system (eV)
  ---------------------------------------------------
  alpha Z        PSCENC =       244.57667505
  Ewald energy   TEWEN  =     -1902.56446717
  -Hartree energ DENC   =      -248.54267050
  -exchange      EXHF   =         0.00000000
  -V(xc)+E(xc)   XCENC  =        50.81965394
  PAW double counting   =      2820.88109105    -2795.84370523
  entropy T*S    EENTRO =         0.00000000
  eigenvalues    EBANDS =      -276.31508512
  atomic energy  EATOM  =      2086.78124273
  Solvation  Ediel_sol  =         0.00000000
  ---------------------------------------------------
  free energy    TOTEN  =       -20.20726525 eV

  energy without entropy =      -20.20726525  energy(sigma->0) =      -20.20726525


--------------------------------------------------------------------------------------------------------




 average (electrostatic) potential at core
  the test charge radii are     1.2125
  (the norm of the test charge is              1.0000)
       1 -35.2786       2 -35.2786



 E-fermi :   4.7724     XC(G=0): -12.2951     alpha+bet :-12.6387

 Fermi energy:         4.7723847722

 spin component 1

 k-point     1 :       0.0000    0.0000    0.0000
  band No.  band energies     occupation 
      1     -25.8906      1.00000
      2     -25.8660      1.00000
      3     -25.8660      1.00000
      4     -25.0213      1.00000
      5     -25.0209      1.00000
      6     -25.0209      1.00000
      7      -1.1192      1.00000
      8       1.1728      1.00000
      9       1.1979      1.00000
     10       5.0878     -0.08025
     11       5.0878     -0.01894
     12       5.1941      0.00000
     13       7.8666      0.00000
     14       8.0092      0.00000
     15      10.1440      0.00000
     16      10.1769      0.00000

 k-point     2 :       0.1429    0.0000    0.0000
  band No.  band energies     occupation 
      1     -25.8706      1.00000
      2     -25.8462      1.00000
      3     -25.8226      1.00000
      4     -25.1134      1.00000
      5     -25.0625      1.00000
      6     -25.0608      1.00000
      7      -0.7115      1.00000
      8       1.4050      1.00000
      9       1.5285      1.00000
     10       5.0516      0.06112
     11       5.1553     -0.03838
     12       5.2789      0.00000
     13       7.4071      0.00000
     14       8.1189      0.00000
     15       8.9960      0.00000
     16       9.0196      0.00000

 k-point     3 :       0.2857    0.0000    0.0000
  band No.  band energies     occupation 
      1     -25.8583      1.00000
      2     -25.7223      1.00000
      3     -25.7018      1.00000
      4     -25.3406      1.00000
      5     -25.1794      1.00000
      6     -25.1741      1.00000
      7       0.3779      1.00000
      8       2.0739      1.00000
      9       2.2697      1.00000
     10       5.0645      0.44510
     11       5.1611     -0.09575
     12       5.8368      0.00000
     13       6.0779      0.00000
     14       7.3488      0.00000
     15       7.4058      0.00000
     16       8.6470      0.00000

 k-point     4 :       0.4286    0.0000    0.0000
  band No.  band energies     occupation 
      1     -25.7756      1.00000
      2     -25.5926      1.00000
      3     -25.5449      1.00000
      4     -25.5292      1.00000
      5     -25.3510      1.00000
      6     -25.3407      1.00000
      7       1.7318      1.00000
      8       2.5656      1.00000
      9       3.1464      1.00000
     10       4.5393      0.98935
     11       5.3589     -0.17982
     12       5.4454      0.00000
     13       6.1023      0.00000
     14       6.1764      0.00000
     15       6.7110      0.00000
     16       7.8008      0.00000

 k-point     5 :       0.0000    0.1429    0.0000
  band No.  band energies     occupation 
      1     -25.8899      1.00000
      2     -25.8230      1.00000
      3     -25.8230      1.00000
      4     -25.1107      1.00000
      5     -25.0613      1.00000
      6     -25.0613      1.00000
      7      -0.7196      1.00000
      8       1.4196      1.00000
      9       1.4964      1.00000
     10       5.0698      0.01752
     11       5.0698     -0.01580
     12       5.3804      0.00000
     13       7.3128      0.00000
     14       8.1924      0.00000
     15       9.0638      0.00000
     16       9.0638      0.00000

 k-point     6 :       0.1429    0.1429    0.0000
  band No.  band energies     occupation 
      1     -25.9533      1.00000
      2     -25.7833      1.00000
      3     -25.7260      1.00000
      4     -25.2714      1.00000
      5     -25.0966      1.00000
      6     -25.0224      1.00000
      7      -0.3493      1.00000
      8       1.6467      1.00000
      9       1.8084      1.00000
     10       4.7015      0.78812
     11       4.9388      0.16003
     12       5.9201     -0.00586
     13       7.4202      0.00000
     14       7.8221      0.00000
     15       8.0004      0.00000
     16       8.0804      0.00000

 k-point     7 :       0.2857    0.1429    0.0000
  band No.  band energies     occupation 
      1     -25.9917      1.00000
      2     -25.6727      1.00000
      3     -25.5698      1.00000
      4     -25.5302      1.00000
      5     -25.1969      1.00000
      6     -25.0768      1.00000
      7       0.6078      1.00000
      8       2.1550      1.00000
      9       2.5944      1.00000
     10       4.4630      1.00536
     11       4.7327      0.76049
     12       6.3334     -0.05148
     13       6.7495      0.00000
     14       6.7531      0.00000
     15       6.8224      0.00000
     16       8.4572      0.00000

 k-point     8 :       0.4286    0.1429    0.0000
  band No.  band energies     occupation 
      1     -25.9422      1.00000
      2     -25.7796      1.00000
      3     -25.5157      1.00000
      4     -25.3888      1.00000
      5     -25.3457      1.00000
      6     -25.2118      1.00000
      7       1.7240      1.00000
      8       2.4161      1.00000
      9       3.3958      1.00000
     10       4.2849      1.00295
     11       4.6036      0.91408
     12       5.2228     -0.03467
     13       6.2482      0.00000
     14       6.3337      0.00000
     15       7.7663      0.00000
     16       8.8862      0.00000

 k-point     9 :       0.0000    0.2857    0.0000
  band No.  band energies     occupation 
      1     -25.8652      1.00000
      2     -25.7032      1.00000
      3     -25.7032      1.00000
      4     -25.3320      1.00000
      5     -25.1756      1.00000
      6     -25.1756      1.00000
      7       0.3511      1.00000
      8       2.0742      1.00000
      9       2.2135      1.00000
     10       5.1222      0.33808
     11       5.1222     -0.09500
     12       5.9239      0.00000
     13       6.0014      0.00000
     14       7.4554      0.00000
     15       7.4554      0.00000
     16       8.6357      0.00000

 k-point    10 :       0.1429    0.2857    0.0000
  band No.  band energies     occupation 
      1     -25.9900      1.00000
      2     -25.6737      1.00000
      3     -25.5631      1.00000
      4     -25.5251      1.00000
      5     -25.1979      1.00000
      6     -25.0734      1.00000
      7       0.5918      1.00000
      8       2.1473      1.00000
      9       2.5665      1.00000
     10       4.4650      1.00213
     11       4.7420      0.75824
     12       6.3537     -0.05136
     13       6.7279      0.00000
     14       6.7845      0.00000
     15       6.8633      0.00000
     16       8.4424      0.00000

 k-point    11 :       0.2857    0.2857    0.0000
  band No.  band energies     occupation 
      1     -26.1171      1.00000
      2     -25.8046      1.00000
      3     -25.5927      1.00000
      4     -25.3721      1.00000
      5     -25.2628      1.00000
      6     -25.0256      1.00000
      7       1.0674      1.00000
      8       2.0898      1.00000
      9       3.5632      1.00000
     10       3.8614      1.00000
     11       4.7551      0.87773
     12       5.0153      0.06098
     13       6.3915      0.00000
     14       7.5250      0.00000
     15       8.0189      0.00000
     16       8.1911      0.00000

 k-point    12 :       0.4286    0.2857    0.0000
  band No.  band energies     occupation 
      1     -26.1427      1.00000
      2     -26.0330      1.00000
      3     -25.4802      1.00000
      4     -25.3623      1.00000
      5     -25.2005      1.00000
      6     -25.0754      1.00000
      7       1.4495      1.00000
      8       1.8034      1.00000
      9       3.7110      1.00000
     10       4.0970      1.00000
     11       4.5654      0.79607
     12       5.0426      0.00482
     13       6.8748      0.00000
     14       7.4010      0.00000
     15       8.8199      0.00000
     16       9.2412      0.00000

 k-point    13 :       0.0000    0.4286    0.0000
  band No.  band energies     occupation 
      1     -25.7704      1.00000
      2     -25.5818      1.00000
      3     -25.5314      1.00000
      4     -25.5314      1.00000
      5     -25.3430      1.00000
      6     -25.3430      1.00000
      7       1.6858      1.00000
      8       2.5046      1.00000
      9       3.1249      1.00000
     10       4.4905      0.99128
     11       5.4526     -0.28396
     12       5.4526      0.00000
     13       6.2144      0.00000
     14       6.2144      0.00000
     15       6.7750      0.00000
     16       7.8369      0.00000

 k-point    14 :       0.1429    0.4286    0.0000
  band No.  band energies     occupation 
      1     -25.9354      1.00000
      2     -25.7711      1.00000
      3     -25.5175      1.00000
      4     -25.3806      1.00000
      5     -25.3476      1.00000
      6     -25.2053      1.00000
      7       1.7002      1.00000
      8       2.3910      1.00000
      9       3.3690      1.00000
     10       4.2585      1.00378
     11       4.6195      0.89599
     12       5.2475     -0.03642
     13       6.3030      0.00000
     14       6.3880      0.00000
     15       7.8089      0.00000
     16       8.9706      0.00000

 k-point    15 :       0.2857    0.4286    0.0000
  band No.  band energies     occupation 
      1     -26.1392      1.00000
      2     -26.0291      1.00000
      3     -25.4810      1.00000
      4     -25.3631      1.00000
      5     -25.1974      1.00000
      6     -25.0727      1.00000
      7       1.4478      1.00000
      8       1.8013      1.00000
      9       3.7188      1.00000
     10       4.1062      1.00000
     11       4.5584      0.79970
     12       5.0275      0.01216
     13       6.8673      0.00000
     14       7.4349      0.00000
     15       8.7370      0.00000
     16       9.2772      0.00000

 k-point    16 :       0.4286    0.4286    0.0000
  band No.  band energies     occupation 
      1     -26.2452      1.00000
      2     -26.2066      1.00000
      3     -25.4347      1.00000
      4     -25.3925      1.00000
      5     -25.0735      1.00000
      6     -25.0283      1.00000
      7       1.2019      1.00000
      8       1.3147      1.00000
      9       3.2869      1.00000
     10       3.4171      1.00000
     11       6.0460     -0.16037
     12       6.3841     -0.07468
     13       7.5389      0.00000
     14       7.9301      0.00000
     15       8.5294      0.00000
     16       9.4893      0.00000

 k-point    17 :       0.1429    0.0000    0.1429
  band No.  band energies     occupation 
      1     -25.9425      1.00000
      2     -25.8054      1.00000
      3     -25.7181      1.00000
      4     -25.2709      1.00000
      5     -25.0989      1.00000
      6     -25.0240      1.00000
      7      -0.3412      1.00000
      8       1.6414      1.00000
      9       1.8306      1.00000
     10       4.6336      0.86741
     11       5.0169      0.05584
     12       5.8727     -0.00612
     13       7.5325      0.00000
     14       7.7596      0.00000
     15       7.9173      0.00000
     16       8.0829      0.00000

 k-point    18 :       0.2857    0.0000    0.1429
  band No.  band energies     occupation 
      1     -25.9837      1.00000
      2     -25.6920      1.00000
      3     -25.5619      1.00000
      4     -25.5273      1.00000
      5     -25.2024      1.00000
      6     -25.0775      1.00000
      7       0.6166      1.00000
      8       2.1580      1.00000
      9       2.6066      1.00000
     10       4.3815      1.01677
     11       4.7822      0.65997
     12       6.2600     -0.05278
     13       6.7301      0.00000
     14       6.8084      0.00000
     15       6.8594      0.00000
     16       8.4544      0.00000

 k-point    19 :       0.4286    0.0000    0.1429
  band No.  band energies     occupation 
      1     -25.9360      1.00000
      2     -25.7750      1.00000
      3     -25.5307      1.00000
      4     -25.3833      1.00000
      5     -25.3558      1.00000
      6     -25.2097      1.00000
      7       1.7348      1.00000
      8       2.4269      1.00000
      9       3.3953      1.00000
     10       4.2880      1.00320
     11       4.5194      0.95495
     12       5.1420     -0.02686
     13       6.3390      0.00000
     14       6.4035      0.00000
     15       7.7597      0.00000
     16       8.8913      0.00000

 k-point    20 :       0.1429    0.1429    0.1429
  band No.  band energies     occupation 
      1     -25.9090      1.00000
      2     -25.8962      1.00000
      3     -25.5935      1.00000
      4     -25.3990      1.00000
      5     -25.0684      1.00000
      6     -25.0664      1.00000
      7       0.0072      1.00000
      8       1.9787      1.00000
      9       2.0043      1.00000
     10       4.5137      0.99222
     11       4.5806      0.85173
     12       6.3171     -0.05433
     13       6.5274      0.00000
     14       7.6713      0.00000
     15       7.7721      0.00000
     16       9.1768      0.00000

 k-point    21 :       0.2857    0.1429    0.1429
  band No.  band energies     occupation 
      1     -25.9895      1.00000
      2     -25.7737      1.00000
      3     -25.6359      1.00000
      4     -25.4349      1.00000
      5     -25.1926      1.00000
      6     -25.0819      1.00000
      7       0.9003      1.00000
      8       2.4851      1.00000
      9       2.6978      1.00000
     10       4.2222      1.01495
     11       4.2821      1.06826
     12       5.0898      0.09946
     13       7.1177      0.00000
     14       7.5460      0.00000
     15       7.6940      0.00000
     16       8.3433      0.00000

 k-point    22 :       0.4286    0.1429    0.1429
  band No.  band energies     occupation 
      1     -25.9836      1.00000
      2     -25.8569      1.00000
      3     -25.5845      1.00000
      4     -25.3769      1.00000
      5     -25.2848      1.00000
      6     -25.1603      1.00000
      7       1.8781      1.00000
      8       2.6288      1.00000
      9       3.1837      1.00000
     10       3.8255      1.00569
     11       4.5171      0.97864
     12       4.8158      0.25690
     13       6.5931      0.00000
     14       6.7519      0.00000
     15       8.4804      0.00000
     16       8.8122      0.00000

 k-point    23 :       0.1429    0.2857    0.1429
  band No.  band energies     occupation 
      1     -25.9921      1.00000
      2     -25.7668      1.00000
      3     -25.6330      1.00000
      4     -25.4317      1.00000
      5     -25.1934      1.00000
      6     -25.0766      1.00000
      7       0.8861      1.00000
      8       2.4936      1.00000
      9       2.6600      1.00000
     10       4.2342      1.01560
     11       4.2990      1.05511
     12       5.1068      0.09840
     13       7.0722      0.00000
     14       7.5693      0.00000
     15       7.7688      0.00000
     16       8.3332      0.00000

 k-point    24 :       0.2857    0.2857    0.1429
  band No.  band energies     occupation 
      1     -26.0626      1.00000
      2     -25.8440      1.00000
      3     -25.7240      1.00000
      4     -25.2829      1.00000
      5     -25.2572      1.00000
      6     -25.0788      1.00000
      7       1.4643      1.00000
      8       2.4936      1.00000
      9       3.5802      1.00000
     10       3.7353      1.00000
     11       4.1233      1.01359
     12       4.2004      0.92266
     13       7.3690      0.00000
     14       7.6549      0.00000
     15       8.2044      0.00000
     16       8.8832      0.00000

 k-point    25 :       0.4286    0.2857    0.1429
  band No.  band energies     occupation 
      1     -26.1025      1.00000
      2     -26.0258      1.00000
      3     -25.5698      1.00000
      4     -25.3967      1.00000
      5     -25.1722      1.00000
      6     -25.1051      1.00000
      7       1.8176      1.00000
      8       2.1415      1.00000
      9       3.5514      1.00000
     10       3.6373      1.00000
     11       4.6125      0.84605
     12       4.6546      0.61679
     13       7.2553      0.00000
     14       7.4812      0.00000
     15       8.6854      0.00000
     16       9.1277      0.00000

 k-point    26 :       0.1429    0.4286    0.1429
  band No.  band energies     occupation 
      1     -25.9801      1.00000
      2     -25.8515      1.00000
      3     -25.5808      1.00000
      4     -25.3760      1.00000
      5     -25.2789      1.00000
      6     -25.1535      1.00000
      7       1.8641      1.00000
      8       2.6128      1.00000
      9       3.1808      1.00000
     10       3.8206      1.00646
     11       4.5493      0.96725
     12       4.8234      0.25712
     13       6.6010      0.00000
     14       6.8103      0.00000
     15       8.4342      0.00000
     16       8.7270      0.00000

 k-point    27 :       0.2857    0.4286    0.1429
  band No.  band energies     occupation 
      1     -26.0993      1.00000
      2     -26.0224      1.00000
      3     -25.5706      1.00000
      4     -25.3982      1.00000
      5     -25.1690      1.00000
      6     -25.1012      1.00000
      7       1.8227      1.00000
      8       2.1454      1.00000
      9       3.5566      1.00000
     10       3.6597      1.00000
     11       4.5821      0.85753
     12       4.6486      0.62106
     13       7.2783      0.00000
     14       7.5157      0.00000
     15       8.5736      0.00000
     16       9.0517      0.00000

 k-point    28 :       0.4286    0.4286    0.1429
  band No.  band energies     occupation 
      1     -26.1852      1.00000
      2     -26.1588      1.00000
      3     -25.4983      1.00000
      4     -25.4317      1.00000
      5     -25.1085      1.00000
      6     -25.0885      1.00000
      7       1.6087      1.00000
      8       1.6906      1.00000
      9       3.2366      1.00000
     10       3.3334      1.00000
     11       5.6614     -0.12083
     12       5.7411     -0.13768
     13       7.7703      0.00000
     14       8.0065      0.00000
     15       8.5601      0.00000
     16       8.9705      0.00000

 k-point    29 :       0.2857    0.0000    0.2857
  band No.  band energies     occupation 
      1     -26.1107      1.00000
      2     -25.8029      1.00000
      3     -25.6088      1.00000
      4     -25.3730      1.00000
      5     -25.2694      1.00000
      6     -25.0313      1.00000
      7       1.0848      1.00000
      8       2.0934      1.00000
      9       3.5995      1.00000
     10       3.7656      1.00000
     11       4.7910      0.80172
     12       4.9188      0.10202
     13       6.4337      0.00000
     14       7.6525      0.00000
     15       7.9944      0.00000
     16       8.1762      0.00000

 k-point    30 :       0.4286    0.0000    0.2857
  band No.  band energies     occupation 
      1     -26.1369      1.00000
      2     -26.0287      1.00000
      3     -25.4933      1.00000
      4     -25.3720      1.00000
      5     -25.2038      1.00000
      6     -25.0806      1.00000
      7       1.4565      1.00000
      8       1.8032      1.00000
      9       3.6108      1.00000
     10       3.9972      1.00000
     11       4.6003      0.77582
     12       5.0721     -0.01310
     13       6.9540      0.00000
     14       7.5228      0.00000
     15       8.8313      0.00000
     16       9.2463      0.00000

 k-point    31 :       0.2857    0.1429    0.2857
  band No.  band energies     occupation 
      1     -26.0572      1.00000
      2     -25.8439      1.00000
      3     -25.7338      1.00000
      4     -25.2858      1.00000
      5     -25.2590      1.00000
      6     -25.0844      1.00000
      7       1.4724      1.00000
      8       2.4825      1.00000
      9       3.6146      1.00000
     10       3.6618      1.00000
     11       4.0925      1.02419
     12       4.2376      0.92528
     13       7.3490      0.00000
     14       7.7431      0.00000
     15       8.1888      0.00000
     16       8.8748      0.00000

 k-point    32 :       0.4286    0.1429    0.2857
  band No.  band energies     occupation 
      1     -26.0984      1.00000
      2     -26.0234      1.00000
      3     -25.5777      1.00000
      4     -25.4019      1.00000
      5     -25.1757      1.00000
      6     -25.1096      1.00000
      7       1.8157      1.00000
      8       2.1299      1.00000
      9       3.4839      1.00000
     10       3.6039      1.00000
     11       4.6201      0.83717
     12       4.6858      0.56716
     13       7.3078      0.00000
     14       7.5631      0.00000
     15       8.6881      0.00000
     16       9.1571      0.00000

 k-point    33 :       0.2857    0.2857    0.2857
  band No.  band energies     occupation 
      1     -25.9405      1.00000
      2     -25.9109      1.00000
      3     -25.9072      1.00000
      4     -25.2335      1.00000
      5     -25.2269      1.00000
      6     -25.1960      1.00000
      7       2.3779      1.00000
      8       3.0342      1.00000
      9       3.4834      1.00000
     10       3.5227      1.00000
     11       3.5682      1.03025
     12       3.6077      1.07711
     13       8.1402      0.00000
     14       8.1553      0.00000
     15       8.3353      0.00000
     16       8.4241      0.00000

 k-point    34 :       0.4286    0.2857    0.2857
  band No.  band energies     occupation 
      1     -26.0241      1.00000
      2     -26.0211      1.00000
      3     -25.6898      1.00000
      4     -25.4465      1.00000
      5     -25.1930      1.00000
      6     -25.1708      1.00000
      7       2.5072      1.00000
      8       2.5395      1.00000
      9       3.4179      1.00000
     10       3.4893      1.00000
     11       4.0562      1.00725
     12       4.3970      0.99524
     13       7.9315      0.00000
     14       7.9857      0.00000
     15       8.6369      0.00000
     16       8.7214      0.00000

 k-point    35 :       0.2857    0.4286    0.2857
  band No.  band energies     occupation 
      1     -26.0219      1.00000
      2     -26.0192      1.00000
      3     -25.6903      1.00000
      4     -25.4497      1.00000
      5     -25.1864      1.00000
      6     -25.1667      1.00000
      7       2.5453      1.00000
      8       2.5712      1.00000
      9       3.4261      1.00000
     10       3.5144      1.00000
[...]
  band No.  band energies     occupation 
      1     -26.0248      1.00000
      2     -26.0218      1.00000
      3     -25.6905      1.00000
      4     -25.4471      1.00000
      5     -25.1935      1.00000
      6     -25.1714      1.00000
      7       2.5051      1.00000
      8       2.5376      1.00000
      9       3.4161      1.00000
     10       3.4875      1.00000
     11       4.0541      1.00751
     12       4.3950      0.99516
     13       7.9306      0.00000
     14       7.9849      0.00000
     15       8.6364      0.00000
     16       8.7206      0.00000

 k-point    35 :       0.2857    0.4286    0.2857
  band No.  band energies     occupation 
      1     -26.0225      1.00000
      2     -26.0198      1.00000
      3     -25.6909      1.00000
      4     -25.4503      1.00000
      5     -25.1869      1.00000
      6     -25.1672      1.00000
      7       2.5433      1.00000
      8       2.5693      1.00000
      9       3.4243      1.00000
     10       3.5126      1.00000
     11       4.0273      1.01109
     12       4.3494      1.00477
     13       7.9735      0.00000
     14       7.9955      0.00000
     15       8.5300      0.00000
     16       8.5947      0.00000

 k-point    36 :       0.4286    0.4286    0.2857
  band No.  band energies     occupation 
      1     -26.0350      1.00000
      2     -26.0177      1.00000
      3     -25.6396      1.00000
      4     -25.5056      1.00000
      5     -25.2579      1.00000
      6     -25.2188      1.00000
      7       2.5048      1.00000
      8       2.6327      1.00000
      9       3.2016      1.00000
     10       3.3850      1.00000
     11       4.6191      0.85131
     12       4.7833      0.64531
     13       8.2685      0.00000
     14       8.3314      0.00000
     15       8.6198      0.00000
     16       8.6771      0.00000

 k-point    37 :       0.4286    0.0000    0.4286
  band No.  band energies     occupation 
      1     -26.2426      1.00000
      2     -26.2046      1.00000
      3     -25.4463      1.00000
      4     -25.4029      1.00000
      5     -25.0825      1.00000
      6     -25.0379      1.00000
      7       1.1943      1.00000
      8       1.3044      1.00000
      9       3.1736      1.00000
     10       3.3037      1.00000
     11       6.1031     -0.16382
     12       6.4479     -0.06493
     13       7.6605      0.00000
     14       8.0705      0.00000
     15       8.5768      0.00000
     16       9.5688      0.00000

 k-point    38 :       0.4286    0.1429    0.4286
  band No.  band energies     occupation 
      1     -26.1836      1.00000
      2     -26.1579      1.00000
      3     -25.5059      1.00000
      4     -25.4377      1.00000
      5     -25.1171      1.00000
      6     -25.0980      1.00000
      7       1.5903      1.00000
      8       1.6683      1.00000
      9       3.1454      1.00000
     10       3.2472      1.00000
     11       5.7185     -0.14692
     12       5.8023     -0.13128
     13       7.8704      0.00000
     14       8.1259      0.00000
     15       8.6060      0.00000
     16       9.0378      0.00000

 k-point    39 :       0.4286    0.2857    0.4286
  band No.  band energies     occupation 
      1     -26.0357      1.00000
      2     -26.0180      1.00000
      3     -25.6392      1.00000
      4     -25.5021      1.00000
      5     -25.2663      1.00000
      6     -25.2245      1.00000
      7       2.4682      1.00000
      8       2.5937      1.00000
      9       3.1614      1.00000
     10       3.3454      1.00000
     11       4.6777      0.81851
     12       4.8395      0.53184
     13       8.3096      0.00000
     14       8.3863      0.00000
     15       8.6618      0.00000
     16       8.7326      0.00000

 k-point    40 :       0.4286    0.4286    0.4286
  band No.  band energies     occupation 
      1     -25.8933      1.00000
      2     -25.7774      1.00000
      3     -25.7726      1.00000
      4     -25.5090      1.00000
      5     -25.5002      1.00000
      6     -25.3800      1.00000
      7       2.9833      1.00000
      8       3.3920      1.00000
      9       3.4044      1.00000
     10       3.9238      1.00000
     11       3.9758      1.00000
     12       3.9783      1.12304
     13       8.6190      0.00000
     14       8.6285      0.00000
     15       8.6890      0.00000
     16       8.6922      0.00000


--------------------------------------------------------------------------------------------------------


 soft charge-density along one line, spin component           1
         0         1         2         3         4         5         6         7         8         9
 total charge-density along one line

 soft charge-density along one line, spin component           2
         0         1         2         3         4         5         6         7         8         9
 total charge-density along one line

 pseudopotential strength for first ion, spin component:           1
-28.168   0.000   0.000   6.016  -0.000  -0.000  -0.000  -0.000
  0.000 -28.167   0.000  -0.000   6.016  -0.000  -0.000  -0.000
  0.000   0.000 -28.167  -0.000  -0.000   6.016  -0.000  -0.000
  6.016  -0.000  -0.000   4.202   0.000   0.000   0.000   0.000
 -0.000   6.016  -0.000   0.000   4.202   0.000  -0.000   0.000
 -0.000  -0.000   6.016   0.000   0.000   4.202   0.000  -0.000
 -0.000  -0.000  -0.000   0.000  -0.000   0.000  -6.382   0.000
 -0.000  -0.000  -0.000   0.000   0.000  -0.000   0.000  -6.382
  0.000  -0.000   0.000  -0.000   0.000  -0.000  -0.000   0.000
 -0.000  -0.000  -0.000  -0.000   0.000   0.000   0.000   0.000
  0.000  -0.000   0.000  -0.000   0.000  -0.000  -0.000  -0.000
 -0.000  -0.000  -0.000   0.000  -0.000   0.000  -7.243   0.000
 -0.000  -0.000  -0.000   0.000   0.000  -0.000   0.000  -7.243
  0.000  -0.000   0.000  -0.000   0.000  -0.000  -0.000   0.000
 -0.000  -0.000  -0.000  -0.000   0.000   0.000   0.000   0.000
  0.000  -0.000   0.000  -0.000   0.000  -0.000  -0.000  -0.000
  0.000   0.000   0.000   0.000  -0.000   0.000  -0.000  -0.000
 -0.000  -0.000  -0.000  -0.000  -0.000  -0.000   0.000   0.000
 pseudopotential strength for first ion, spin component:           2
-28.168   0.000   0.000   6.016  -0.000  -0.000  -0.000  -0.000
  0.000 -28.167   0.000  -0.000   6.016  -0.000  -0.000  -0.000
  0.000   0.000 -28.167  -0.000  -0.000   6.016  -0.000  -0.000
  6.016  -0.000  -0.000   4.202   0.000   0.000   0.000   0.000
 -0.000   6.016  -0.000   0.000   4.202   0.000   0.000   0.000
 -0.000  -0.000   6.016   0.000   0.000   4.202   0.000   0.000
 -0.000  -0.000  -0.000   0.000   0.000   0.000  -6.382   0.000
 -0.000  -0.000  -0.000   0.000   0.000   0.000   0.000  -6.382
  0.000  -0.000   0.000  -0.000   0.000  -0.000  -0.000   0.000
 -0.000  -0.000  -0.000   0.000   0.000   0.000   0.000   0.000
  0.000  -0.000   0.000  -0.000   0.000  -0.000  -0.000  -0.000
 -0.000  -0.000  -0.000   0.000   0.000   0.000  -7.244   0.000
 -0.000  -0.000  -0.000   0.000   0.000   0.000   0.000  -7.244
  0.000  -0.000   0.000  -0.000   0.000  -0.000  -0.000   0.000
 -0.000  -0.000  -0.000   0.000   0.000   0.000   0.000   0.000
  0.000  -0.000   0.000  -0.000   0.000  -0.000  -0.000  -0.000
  0.000   0.000   0.000   0.000  -0.000   0.000  -0.000  -0.000
 -0.000  -0.000  -0.000  -0.000  -0.000  -0.000   0.000   0.000
 total augmentation occupancy for first ion, spin component:           1
  1.993   0.000   0.000  -0.014  -0.000  -0.000  -0.000  -0.000   0.000   0.000   0.000  -0.000  -0.000   0.000   0.000   0.000
  0.000   1.993   0.000  -0.000  -0.014  -0.000  -0.000   0.000   0.000  -0.000   0.000   0.000   0.000   0.000   0.000  -0.000
  0.000   0.000   1.993  -0.000  -0.000  -0.014   0.000   0.000  -0.000   0.000   0.000  -0.000   0.000   0.000   0.000   0.000
 -0.014  -0.000  -0.000   0.201   0.000   0.000   0.000   0.000  -0.000  -0.000   0.000   0.000   0.000   0.000   0.000   0.000
 -0.000  -0.014  -0.000   0.000   0.203   0.000   0.000   0.000  -0.000   0.000   0.000  -0.000   0.000   0.000   0.000   0.000
 -0.000  -0.000  -0.014   0.000   0.000   0.203   0.000   0.000  -0.000   0.000   0.000   0.000  -0.000  -0.000   0.000   0.000
 -0.000   0.000   0.000  -0.000  -0.000  -0.000   5.876   0.000  -0.000   0.000   0.000  -3.255  -0.000   0.000  -0.000  -0.000
 -0.000  -0.000   0.000  -0.000   0.000  -0.000   0.000   5.876   0.000   0.000  -0.000  -0.000  -3.255  -0.000  -0.000   0.000
  0.000   0.000   0.000   0.000  -0.000   0.000  -0.000   0.000   5.515   0.000  -0.021   0.000  -0.000  -3.235  -0.000   0.010
  0.000  -0.000   0.000  -0.000  -0.000   0.000   0.000   0.000   0.000   5.832   0.000  -0.000  -0.000  -0.000  -3.234  -0.000
  0.000   0.000   0.000   0.000   0.000   0.000   0.000  -0.000  -0.021   0.000   5.491  -0.000   0.000   0.010  -0.000  -3.223
 -0.000   0.000  -0.000   0.000   0.000   0.000  -3.255  -0.000   0.000  -0.000  -0.000   1.841   0.000  -0.000   0.000  -0.000
 -0.000  -0.000   0.000   0.000   0.000   0.000  -0.000  -3.255  -0.000  -0.000   0.000   0.000   1.841   0.000   0.000  -0.000
  0.000   0.000  -0.000   0.000   0.000  -0.000   0.000  -0.000  -3.235  -0.000   0.010  -0.000   0.000   1.916   0.000  -0.005
  0.000  -0.000  -0.000   0.000   0.000   0.000  -0.000  -0.000  -0.000  -3.234  -0.000   0.000   0.000   0.000   1.831   0.000
  0.000  -0.000   0.000   0.000   0.000   0.000  -0.000   0.000   0.010  -0.000  -3.223  -0.000  -0.000  -0.005   0.000   1.910
 -0.000   0.000   0.000   0.000   0.000   0.000  -0.000  -0.000   0.004   0.000   0.007   0.000   0.000  -0.002   0.000  -0.004
  0.000   0.000  -0.000   0.000   0.000  -0.000  -0.000  -0.000   0.000   0.000   0.000   0.000  -0.000  -0.000   0.000  -0.000
 total augmentation occupancy for first ion, spin component:           2
  0.000   0.000   0.000   0.000   0.000   0.000   0.000  -0.000   0.000   0.000   0.000  -0.000   0.000   0.000   0.000   0.000
  0.000   0.000   0.000   0.000   0.000   0.000   0.000   0.000   0.000   0.000  -0.000   0.000  -0.000   0.000   0.000  -0.000
  0.000   0.000   0.000   0.000   0.000   0.000  -0.000  -0.000  -0.000  -0.000   0.000   0.000   0.000  -0.000   0.000   0.000
  0.000   0.000   0.000  -0.000  -0.000  -0.000   0.000   0.000  -0.000   0.000  -0.000   0.000   0.000   0.000   0.000   0.000
  0.000   0.000   0.000  -0.000  -0.000  -0.000   0.000   0.000   0.000   0.000   0.000  -0.000   0.000   0.000   0.000   0.000
  0.000   0.000   0.000  -0.000  -0.000  -0.000   0.000   0.000   0.000   0.000   0.000   0.000  -0.000   0.000   0.000   0.000
  0.000   0.000  -0.000   0.000   0.000   0.000  -0.004  -0.000   0.000  -0.000   0.000   0.002   0.000  -0.000   0.000  -0.000
 -0.000  -0.000   0.000   0.000   0.000   0.000  -0.000  -0.004   0.000  -0.000   0.000   0.000   0.002  -0.000   0.000  -0.000
  0.000   0.000   0.000  -0.000   0.000   0.000   0.000   0.000  -0.006   0.000   0.000  -0.000  -0.000   0.005  -0.000  -0.000
  0.000  -0.000   0.000   0.000   0.000   0.000  -0.000  -0.000   0.000  -0.004  -0.000   0.000   0.000  -0.000   0.002   0.000
  0.000   0.000   0.000   0.000  -0.000  -0.000   0.000   0.000   0.000  -0.000  -0.005  -0.000  -0.000  -0.000   0.000   0.004
 -0.000   0.000  -0.000   0.000  -0.000   0.000   0.002   0.000  -0.000   0.000  -0.000  -0.001  -0.000   0.000  -0.000   0.000
  0.000   0.000   0.000   0.000   0.000   0.000   0.000   0.002  -0.000   0.000  -0.000  -0.000  -0.001   0.000  -0.000   0.000
  0.000   0.000  -0.000   0.000   0.000   0.000  -0.000  -0.000   0.005  -0.000  -0.000   0.000   0.000  -0.003   0.000   0.000
  0.000   0.000   0.000   0.000   0.000   0.000   0.000   0.000  -0.000   0.002   0.000  -0.000  -0.000   0.000  -0.001  -0.000
  0.000   0.000   0.000   0.000   0.000   0.000  -0.000  -0.000  -0.000   0.000   0.004   0.000   0.000   0.000  -0.000  -0.003
 -0.000   0.000   0.000   0.000   0.000   0.000  -0.000   0.000   0.000   0.000   0.000   0.000   0.000  -0.000  -0.000  -0.000
  0.000   0.000   0.000   0.000   0.000   0.000   0.000  -0.000   0.000  -0.000   0.000   0.000  -0.000  -0.000   0.000  -0.000


------------------------ aborting loop because EDIFF is reached ----------------------------------------





 total charge

# of ion       s       p       d       tot
------------------------------------------
    1        0.415   6.287   3.064   9.767
    2        0.415   6.287   3.064   9.767
--------------------------------------------------
tot          0.831  12.575   6.128  19.534



 magnetization (x)

# of ion       s       p       d       tot
------------------------------------------
    1       -0.000  -0.000  -0.001  -0.001
    2       -0.000  -0.000  -0.001  -0.001
--------------------------------------------------
tot         -0.000  -0.001  -0.002  -0.002

    CHARGE:  cpu time     20.2043: real time      1.1421
    FORLOC:  cpu time      0.0005: real time      0.0005
    FORNL :  cpu time     78.8203: real time      4.3900
    STRESS:  cpu time    254.5375: real time     14.0472
    FORCOR:  cpu time      2.0028: real time      0.1523
    FORHAR:  cpu time      0.1621: real time      0.0105
    MIXING:  cpu time      0.1414: real time      0.0022
    OFIELD:  cpu time      0.0000: real time      0.0000

  FORCE on cell =-STRESS in cart. coord.  units (eV):
  Direction    XX          YY          ZZ          XY          YZ          ZX
  --------------------------------------------------------------------------------------
  Alpha Z   244.57668   244.57668   244.57668
  Ewald    -633.86991  -634.82450  -633.86991     0.00000     0.00000     0.00000
  Hartree    83.01065    82.52183    83.01065    -0.00000    -0.00000    -0.00000
  E(xc)     -94.95715   -94.95983   -94.95715    -0.00000     0.00000     0.00000
  Local     202.66412   204.14862   202.66412     0.00000    -0.00000    -0.00000
  n-local   -87.95673   -84.58421   -80.87598     1.92040    -0.32329     0.87131
  augment    53.62263    53.63299    53.62263    -0.00000     0.00000    -0.00000
  Kinetic   222.18957   228.81690   235.87139     1.50470    -1.05460     0.16211
  Fock        0.00000     0.00000     0.00000     0.00000     0.00000     0.00000
  -------------------------------------------------------------------------------------
  Total      -0.33886    -0.67152    -0.33886     0.00000     0.00000     0.00000
  in kB     -14.66553   -29.06271   -14.66553     0.00000     0.00000     0.00000
  external pressure =      -19.46 kB  Pullay stress =        0.00 kB


 VOLUME and BASIS-vectors are now :
 -----------------------------------------------------------------------------
  energy-cutoff  :      520.00
  volume of cell :       37.02
      direct lattice vectors                 reciprocal lattice vectors
     3.321779337  0.000000000  0.000000000     0.301043477 -0.000000000  0.000000000
     0.000000000  3.354997130  0.000000000     0.000000000  0.298062848  0.000000000
     0.000000000  0.000000000  3.321779337    -0.000000000 -0.000000000  0.301043477

  length of vectors
     3.321779337  3.354997130  3.321779337     0.301043477  0.298062848  0.301043477


 FORCES acting on ions
    electron-ion (+dipol)            ewald-force                    non-local-force                 convergence-correction
 -----------------------------------------------------------------------------------------------
   -.695E-14 -.117E-13 -.190E-13   -.187E-14 -.779E-14 -.314E-14   0.309E-22 0.709E-22 -.104E-21   0.162E-13 -.143E-13 0.356E-13
   0.118E-12 0.153E-11 0.158E-11   0.197E-14 0.686E-14 0.391E-14   0.204E-22 0.941E-22 -.421E-22   -.211E-13 -.552E-13 -.317E-13
 -----------------------------------------------------------------------------------------------
   0.111E-12 0.152E-11 0.156E-11   0.956E-16 -.924E-15 0.773E-15   0.514E-22 0.165E-21 -.147E-21   -.489E-14 -.696E-13 0.396E-14


 POSITION                                       TOTAL-FORCE (eV/Angst)
 -----------------------------------------------------------------------------------
      0.00000      0.00000      0.00000         0.000000      0.000000     -0.000000
      1.66089      1.67750      1.66089        -0.000000     -0.000000      0.000000
 -----------------------------------------------------------------------------------
    total drift:                                0.000000      0.000000      0.000000


--------------------------------------------------------------------------------------------------------



  FREE ENERGIE OF THE ION-ELECTRON SYSTEM (eV)
  ---------------------------------------------------
  free  energy   TOTEN  =       -20.20726525 eV

  energy  without entropy=      -20.20726525  energy(sigma->0) =      -20.20726525



--------------------------------------------------------------------------------------------------------


    POTLOK:  cpu time      2.5721: real time      0.3775


--------------------------------------------------------------------------------------------------------


     LOOP+:  cpu time   5323.0134: real time    281.1409
 -----------------------------------------------------------------------------
|                                                                             |
|           W    W    AA    RRRRR   N    N  II  N    N   GGGG   !!!           |
|           W    W   A  A   R    R  NN   N  II  NN   N  G    G  !!!           |
|           W    W  A    A  R    R  N N  N  II  N N  N  G       !!!           |
|           W WW W  AAAAAA  RRRRR   N  N N  II  N  N N  G  GGG   !            |
|           WW  WW  A    A  R   R   N   NN  II  N   NN  G    G                |
|           W    W  A    A  R    R  N    N  II  N    N   GGGG   !!!           |
|                                                                             |
|     Tetrahedron method does not include variations of the Fermi             |
|     occupations, so forces and stress will be inaccurate. We suggest        |
|     using a different smearing scheme ISMEAR = 1 or 2 for metals in         |
|     relaxations.                                                            |
|                                                                             |
 -----------------------------------------------------------------------------

    4ORBIT:  cpu time      0.0000: real time      0.0000



 total charge

# of ion       s       p       d       tot
------------------------------------------
    1        0.415   6.287   3.064   9.767
    2        0.415   6.287   3.064   9.767
--------------------------------------------------
tot          0.831  12.575   6.128  19.534



 magnetization (x)

# of ion       s       p       d       tot
------------------------------------------
    1       -0.000  -0.000  -0.001  -0.001
    2       -0.000  -0.000  -0.001  -0.001
--------------------------------------------------
tot         -0.000  -0.001  -0.002  -0.002

 BZINTS: Fermi energy:    4.772385;   22.000000 electrons
         Band energy:-0.276315E+03;  BLOECHL correction:   -0.208090

 total amount of memory used by VASP MPI-rank0    78812. kBytes
=======================================================================

   base      :      30000. kBytes
   nonlr-proj:       6135. kBytes
   fftplans  :       6192. kBytes
   grid      :      14776. kBytes
   one-center:         62. kBytes
   wavefun   :      21647. kBytes

  
  
 General timing and accounting informations for this job:
 ========================================================
  
                  Total CPU time used (sec):     5507.267
                            User time (sec):     5367.595
                          System time (sec):      139.671
                         Elapsed time (sec):      290.348
  
                   Maximum memory used (kb):      307728.
                   Average memory used (kb):          N/A
  
                          Minor page faults:      4404739
                          Major page faults:           68
                 Voluntary context switches:      1530643
