   4   4   1   0
  0.2076137E+02  0.4362867E-09  0.4362867E-09  0.4362867E-09  0.5000000E-15
  1.000000000000000E-004
  CAR 
 unknown system                          
     14.82336472     -4.56312711  301      5.63554619      1.00000000
     -4.563  0.0000E+00  0.0000E+00  0.0000E+00  0.0000E+00
     -4.499  0.0000E+00  0.0000E+00  0.0000E+00  0.0000E+00
     -4.434  0.0000E+00  0.0000E+00  0.0000E+00  0.0000E+00
     -4.369  0.0000E+00  0.0000E+00  0.0000E+00  0.0000E+00
     -4.305  0.0000E+00  0.0000E+00  0.0000E+00  0.0000E+00
     -4.240  0.0000E+00  0.0000E+00  0.0000E+00  0.0000E+00
     -4.175  0.0000E+00  0.0000E+00  0.0000E+00  0.0000E+00
     -4.111  0.1079E-03  0.9649E-04  0.6976E-05  0.6235E-05
     -4.046  0.2850E-03  0.2547E-03  0.2539E-04  0.2270E-04
     -3.982  0.1035E-02  0.9257E-03  0.9230E-04  0.8252E-04
     -3.917  0.3739E-02  0.3346E-02  0.3339E-03  0.2988E-03
     -3.852  0.1321E-01  0.1186E-01  0.1188E-02  0.1065E-02
     -3.788  0.4332E-01  0.3931E-01  0.3987E-02  0.3605E-02
     -3.723  0.1132E+00  0.1058E+00  0.1131E-01  0.1044E-01
     -3.658  0.1783E+00  0.1761E+00  0.2282E-01  0.2183E-01
     -3.594  0.1378E+00  0.1447E+00  0.3173E-01  0.3118E-01
     -3.529  0.6295E-01  0.6790E-01  0.3580E-01  0.3556E-01
     -3.465  0.3568E-01  0.3594E-01  0.3810E-01  0.3789E-01
     -3.400  0.6514E-01  0.5976E-01  0.4231E-01  0.4175E-01
     -3.335  0.1878E+00  0.1719E+00  0.5445E-01  0.5285E-01
     -3.271  0.4251E+00  0.4038E+00  0.8195E-01  0.7899E-01
     -3.206  0.5296E+00  0.5349E+00  0.1162E+00  0.1136E+00
     -3.141  0.3256E+00  0.3477E+00  0.1372E+00  0.1360E+00
     -3.077  0.1286E+00  0.1402E+00  0.1455E+00  0.1451E+00
     -3.012  0.6358E-01  0.6496E-01  0.1496E+00  0.1493E+00
     -2.948  0.1016E+00  0.9401E-01  0.1562E+00  0.1554E+00
     -2.883  0.2654E+00  0.2456E+00  0.1734E+00  0.1712E+00
     -2.818  0.4991E+00  0.4837E+00  0.2057E+00  0.2026E+00
     -2.754  0.4804E+00  0.4961E+00  0.2367E+00  0.2346E+00
     -2.689  0.2420E+00  0.2615E+00  0.2524E+00  0.2515E+00
     -2.624  0.9650E-01  0.1035E+00  0.2586E+00  0.2582E+00
     -2.560  0.8031E-01  0.7724E-01  0.2638E+00  0.2632E+00
     -2.495  0.1914E+00  0.1753E+00  0.2762E+00  0.2745E+00
     -2.431  0.4752E+00  0.4453E+00  0.3069E+00  0.3033E+00
     -2.366  0.7152E+00  0.7098E+00  0.3531E+00  0.3492E+00
     -2.301  0.5294E+00  0.5580E+00  0.3873E+00  0.3853E+00
     -2.237  0.2298E+00  0.2495E+00  0.4022E+00  0.4014E+00
     -2.172  0.1085E+00  0.1120E+00  0.4092E+00  0.4086E+00
     -2.108  0.1566E+00  0.1453E+00  0.4193E+00  0.4180E+00
     -2.043  0.4225E+00  0.3883E+00  0.4466E+00  0.4431E+00
     -1.978  0.9021E+00  0.8620E+00  0.5050E+00  0.4990E+00
     -1.914  0.1036E+01  0.1054E+01  0.5720E+00  0.5671E+00
     -1.849  0.5932E+00  0.6366E+00  0.6103E+00  0.6082E+00
     -1.784  0.2227E+00  0.2439E+00  0.6247E+00  0.6240E+00
     -1.720  0.9703E-01  0.1009E+00  0.6310E+00  0.6305E+00
     -1.655  0.1288E+00  0.1204E+00  0.6393E+00  0.6383E+00
     -1.591  0.3087E+00  0.2878E+00  0.6593E+00  0.6569E+00
     -1.526  0.5226E+00  0.5118E+00  0.6932E+00  0.6901E+00
     -1.461  0.4456E+00  0.4646E+00  0.7220E+00  0.7201E+00
     -1.397  0.2104E+00  0.2275E+00  0.7356E+00  0.7348E+00
     -1.332  0.9735E-01  0.1013E+00  0.7419E+00  0.7414E+00
     -1.267  0.1294E+00  0.1205E+00  0.7502E+00  0.7492E+00
     -1.203  0.3530E+00  0.3232E+00  0.7730E+00  0.7700E+00
     -1.138  0.8179E+00  0.7757E+00  0.8260E+00  0.8202E+00
     -1.074  0.1069E+01  0.1075E+01  0.8951E+00  0.8897E+00
     -1.009  0.6877E+00  0.7318E+00  0.9395E+00  0.9369E+00
     -0.944  0.2843E+00  0.3080E+00  0.9579E+00  0.9569E+00
     -0.880  0.1630E+00  0.1634E+00  0.9684E+00  0.9674E+00
     -0.815  0.3044E+00  0.2799E+00  0.9881E+00  0.9855E+00
     -0.750  0.8115E+00  0.7512E+00  0.1041E+01  0.1034E+01
     -0.686  0.1508E+01  0.1464E+01  0.1138E+01  0.1129E+01
     -0.621  0.1424E+01  0.1473E+01  0.1230E+01  0.1224E+01
     -0.557  0.7001E+00  0.7586E+00  0.1275E+01  0.1273E+01
     -0.492  0.2483E+00  0.2720E+00  0.1291E+01  0.1291E+01
     -0.427  0.1176E+00  0.1205E+00  0.1299E+01  0.1298E+01
     -0.363  0.1767E+00  0.1649E+00  0.1310E+01  0.1309E+01
     -0.298  0.3910E+00  0.3693E+00  0.1336E+01  0.1333E+01
     -0.233  0.5379E+00  0.5377E+00  0.1371E+01  0.1368E+01
     -0.169  0.3692E+00  0.3909E+00  0.1394E+01  0.1393E+01
     -0.104  0.1613E+00  0.1737E+00  0.1405E+01  0.1404E+01
     -0.040  0.1047E+00  0.1035E+00  0.1412E+01  0.1411E+01
      0.025  0.2169E+00  0.1986E+00  0.1426E+01  0.1424E+01
      0.090  0.5963E+00  0.5508E+00  0.1464E+01  0.1459E+01
      0.154  0.1150E+01  0.1112E+01  0.1539E+01  0.1531E+01
      0.219  0.1137E+01  0.1172E+01  0.1612E+01  0.1607E+01
      0.283  0.5849E+00  0.6309E+00  0.1650E+01  0.1648E+01
      0.348  0.2371E+00  0.2537E+00  0.1665E+01  0.1664E+01
      0.413  0.2024E+00  0.1944E+00  0.1678E+01  0.1677E+01
      0.477  0.4809E+00  0.4411E+00  0.1709E+01  0.1705E+01
      0.542  0.1148E+01  0.1082E+01  0.1784E+01  0.1775E+01
      0.607  0.1611E+01  0.1609E+01  0.1888E+01  0.1879E+01
      0.671  0.1110E+01  0.1176E+01  0.1960E+01  0.1955E+01
      0.736  0.4555E+00  0.4971E+00  0.1989E+01  0.1987E+01
      0.800  0.1873E+00  0.1974E+00  0.2001E+01  0.2000E+01
      0.865  0.2110E+00  0.1988E+00  0.2015E+01  0.2013E+01
      0.930  0.5125E+00  0.4745E+00  0.2048E+01  0.2044E+01
      0.994  0.9812E+00  0.9484E+00  0.2111E+01  0.2105E+01
      1.059  0.9809E+00  0.1010E+01  0.2175E+01  0.2171E+01
      1.124  0.5117E+00  0.5509E+00  0.2208E+01  0.2206E+01
      1.188  0.2200E+00  0.2330E+00  0.2222E+01  0.2221E+01
      1.253  0.2221E+00  0.2107E+00  0.2237E+01  0.2235E+01
      1.317  0.5508E+00  0.5062E+00  0.2272E+01  0.2268E+01
      1.382  0.1242E+01  0.1179E+01  0.2352E+01  0.2344E+01
      1.447  0.1588E+01  0.1599E+01  0.2455E+01  0.2447E+01
      1.511  0.1015E+01  0.1080E+01  0.2521E+01  0.2517E+01
      1.576  0.4131E+00  0.4487E+00  0.2547E+01  0.2546E+01
      1.641  0.2133E+00  0.2168E+00  0.2561E+01  0.2560E+01
      1.705  0.3520E+00  0.3258E+00  0.2584E+01  0.2581E+01
      1.770  0.8890E+00  0.8270E+00  0.2641E+01  0.2634E+01
      1.834  0.1544E+01  0.1509E+01  0.2741E+01  0.2732E+01
      1.899  0.1360E+01  0.1413E+01  0.2829E+01  0.2823E+01
      1.964  0.6465E+00  0.7004E+00  0.2871E+01  0.2869E+01
      2.028  0.2525E+00  0.2707E+00  0.2887E+01  0.2886E+01
      2.093  0.2082E+00  0.2008E+00  0.2901E+01  0.2899E+01
      2.158  0.4598E+00  0.4259E+00  0.2930E+01  0.2927E+01
      2.222  0.9323E+00  0.8949E+00  0.2991E+01  0.2985E+01
      2.287  0.1021E+01  0.1043E+01  0.3057E+01  0.3052E+01
      2.351  0.5654E+00  0.6074E+00  0.3093E+01  0.3091E+01
      2.416  0.2170E+00  0.2357E+00  0.3107E+01  0.3107E+01
      2.481  0.1230E+00  0.1232E+00  0.3115E+01  0.3115E+01
      2.545  0.2259E+00  0.2086E+00  0.3130E+01  0.3128E+01
      2.610  0.5577E+00  0.5210E+00  0.3166E+01  0.3162E+01
      2.674  0.9431E+00  0.9201E+00  0.3227E+01  0.3221E+01
      2.739  0.9116E+00  0.9349E+00  0.3286E+01  0.3282E+01
      2.804  0.5261E+00  0.5593E+00  0.3320E+01  0.3318E+01
      2.868  0.2994E+00  0.3055E+00  0.3339E+01  0.3338E+01
      2.933  0.4631E+00  0.4300E+00  0.3369E+01  0.3365E+01
      2.998  0.1200E+01  0.1111E+01  0.3447E+01  0.3437E+01
      3.062  0.2323E+01  0.2242E+01  0.3597E+01  0.3582E+01
      3.127  0.2431E+01  0.2485E+01  0.3754E+01  0.3743E+01
      3.191  0.1377E+01  0.1474E+01  0.3843E+01  0.3838E+01
      3.256  0.5425E+00  0.5899E+00  0.3878E+01  0.3876E+01
      3.321  0.2780E+00  0.2830E+00  0.3896E+01  0.3895E+01
      3.385  0.4341E+00  0.4052E+00  0.3924E+01  0.3921E+01
      3.450  0.9597E+00  0.9050E+00  0.3986E+01  0.3979E+01
      3.515  0.1464E+01  0.1440E+01  0.4081E+01  0.4073E+01
      3.579  0.1276E+01  0.1323E+01  0.4164E+01  0.4158E+01
      3.644  0.6504E+00  0.6993E+00  0.4206E+01  0.4203E+01
      3.708  0.3152E+00  0.3275E+00  0.4226E+01  0.4224E+01
      3.773  0.3964E+00  0.3740E+00  0.4252E+01  0.4249E+01
      3.838  0.8480E+00  0.8012E+00  0.4306E+01  0.4300E+01
      3.902  0.1218E+01  0.1211E+01  0.4385E+01  0.4379E+01
      3.967  0.9106E+00  0.9551E+00  0.4444E+01  0.4441E+01
      4.032  0.4160E+00  0.4495E+00  0.4471E+01  0.4470E+01
      4.096  0.1907E+00  0.1985E+00  0.4483E+01  0.4482E+01
      4.161  0.2460E+00  0.2296E+00  0.4499E+01  0.4497E+01
      4.225  0.6664E+00  0.6104E+00  0.4542E+01  0.4537E+01
      4.290  0.1558E+01  0.1473E+01  0.4643E+01  0.4632E+01
      4.355  0.2114E+01  0.2116E+01  0.4780E+01  0.4769E+01
      4.419  0.1439E+01  0.1524E+01  0.4873E+01  0.4867E+01
      4.484  0.5855E+00  0.6402E+00  0.4911E+01  0.4909E+01
      4.549  0.2131E+00  0.2296E+00  0.4924E+01  0.4924E+01
      4.613  0.1640E+00  0.1594E+00  0.4935E+01  0.4934E+01
      4.678  0.3231E+00  0.3031E+00  0.4956E+01  0.4953E+01
      4.742  0.5264E+00  0.5160E+00  0.4990E+01  0.4987E+01
      4.807  0.4498E+00  0.4681E+00  0.5019E+01  0.5017E+01
      4.872  0.2357E+00  0.2495E+00  0.5035E+01  0.5034E+01
      4.936  0.1976E+00  0.1912E+00  0.5047E+01  0.5046E+01
      5.001  0.4625E+00  0.4232E+00  0.5077E+01  0.5073E+01
      5.065  0.1226E+01  0.1140E+01  0.5156E+01  0.5147E+01
      5.130  0.2178E+01  0.2121E+01  0.5297E+01  0.5284E+01
      5.195  0.2166E+01  0.2210E+01  0.5437E+01  0.5427E+01
      5.259  0.1415E+01  0.1483E+01  0.5529E+01  0.5523E+01
      5.324  0.7359E+00  0.7829E+00  0.5576E+01  0.5573E+01
      5.389  0.4617E+00  0.4651E+00  0.5606E+01  0.5603E+01
      5.453  0.7514E+00  0.7027E+00  0.5655E+01  0.5649E+01
      5.518  0.1557E+01  0.1480E+01  0.5756E+01  0.5745E+01
      5.582  0.2178E+01  0.2153E+01  0.5896E+01  0.5884E+01
      5.647  0.1992E+01  0.2036E+01  0.6025E+01  0.6016E+01
      5.712  0.1218E+01  0.1294E+01  0.6104E+01  0.6099E+01
      5.776  0.5170E+00  0.5612E+00  0.6137E+01  0.6136E+01
      5.841  0.2626E+00  0.2691E+00  0.6154E+01  0.6153E+01
      5.906  0.3643E+00  0.3444E+00  0.6178E+01  0.6175E+01
      5.970  0.6500E+00  0.6252E+00  0.6220E+01  0.6216E+01
      6.035  0.8064E+00  0.8000E+00  0.6272E+01  0.6268E+01
      6.099  0.7768E+00  0.7863E+00  0.6323E+01  0.6319E+01
      6.164  0.5705E+00  0.5919E+00  0.6360E+01  0.6357E+01
      6.229  0.4782E+00  0.4720E+00  0.6390E+01  0.6387E+01
      6.293  0.8196E+00  0.7739E+00  0.6443E+01  0.6437E+01
      6.358  0.1358E+01  0.1322E+01  0.6531E+01  0.6523E+01
      6.423  0.1538E+01  0.1534E+01  0.6631E+01  0.6622E+01
      6.487  0.1438E+01  0.1459E+01  0.6724E+01  0.6716E+01
      6.552  0.9529E+00  0.1005E+01  0.6785E+01  0.6781E+01
      6.616  0.5232E+00  0.5437E+00  0.6819E+01  0.6816E+01
      6.681  0.6009E+00  0.5730E+00  0.6858E+01  0.6853E+01
      6.746  0.1113E+01  0.1063E+01  0.6930E+01  0.6922E+01
      6.810  0.1493E+01  0.1476E+01  0.7026E+01  0.7018E+01
      6.875  0.1523E+01  0.1525E+01  0.7125E+01  0.7117E+01
      6.940  0.1269E+01  0.1309E+01  0.7207E+01  0.7201E+01
      7.004  0.8129E+00  0.8435E+00  0.7260E+01  0.7256E+01
      7.069  0.8362E+00  0.8090E+00  0.7314E+01  0.7308E+01
      7.133  0.1369E+01  0.1322E+01  0.7402E+01  0.7393E+01
      7.198  0.1516E+01  0.1539E+01  0.7500E+01  0.7493E+01
      7.263  0.9261E+00  0.9862E+00  0.7560E+01  0.7557E+01
      7.327  0.3714E+00  0.4045E+00  0.7584E+01  0.7583E+01
      7.392  0.1675E+00  0.1739E+00  0.7595E+01  0.7594E+01
      7.456  0.2190E+00  0.2055E+00  0.7609E+01  0.7607E+01
      7.521  0.4901E+00  0.4597E+00  0.7641E+01  0.7637E+01
      7.586  0.8293E+00  0.8007E+00  0.7695E+01  0.7689E+01
      7.650  0.1179E+01  0.1136E+01  0.7771E+01  0.7763E+01
      7.715  0.1657E+01  0.1623E+01  0.7878E+01  0.7868E+01
      7.780  0.1550E+01  0.1594E+01  0.7978E+01  0.7971E+01
      7.844  0.1046E+01  0.1078E+01  0.8046E+01  0.8040E+01
      7.909  0.1137E+01  0.1102E+01  0.8119E+01  0.8111E+01
      7.973  0.1688E+01  0.1641E+01  0.8228E+01  0.8218E+01
      8.038  0.2037E+01  0.2018E+01  0.8360E+01  0.8348E+01
      8.103  0.1899E+01  0.1940E+01  0.8483E+01  0.8474E+01
      8.167  0.1114E+01  0.1192E+01  0.8555E+01  0.8551E+01
      8.232  0.4482E+00  0.4883E+00  0.8584E+01  0.8582E+01
      8.297  0.2333E+00  0.2373E+00  0.8599E+01  0.8598E+01
      8.361  0.3694E+00  0.3432E+00  0.8623E+01  0.8620E+01
      8.426  0.8129E+00  0.7684E+00  0.8676E+01  0.8670E+01
      8.490  0.1088E+01  0.1089E+01  0.8746E+01  0.8740E+01
      8.555  0.7611E+00  0.8008E+00  0.8795E+01  0.8792E+01
      8.620  0.4697E+00  0.4792E+00  0.8826E+01  0.8823E+01
      8.684  0.6025E+00  0.5765E+00  0.8864E+01  0.8860E+01
      8.749  0.9575E+00  0.9260E+00  0.8926E+01  0.8920E+01
      8.814  0.1332E+01  0.1292E+01  0.9012E+01  0.9004E+01
      8.878  0.1764E+01  0.1735E+01  0.9127E+01  0.9116E+01
      8.943  0.1615E+01  0.1662E+01  0.9231E+01  0.9223E+01
      9.007  0.1043E+01  0.1081E+01  0.9298E+01  0.9293E+01
      9.072  0.1093E+01  0.1055E+01  0.9369E+01  0.9361E+01
      9.137  0.1833E+01  0.1760E+01  0.9488E+01  0.9475E+01
      9.201  0.2427E+01  0.2390E+01  0.9644E+01  0.9630E+01
      9.266  0.2646E+01  0.2636E+01  0.9815E+01  0.9800E+01
      9.331  0.2255E+01  0.2330E+01  0.9961E+01  0.9951E+01
      9.395  0.1203E+01  0.1296E+01  0.1004E+02  0.1003E+02
      9.460  0.5276E+00  0.5614E+00  0.1007E+02  0.1007E+02
      9.524  0.5009E+00  0.4793E+00  0.1011E+02  0.1010E+02
      9.589  0.1101E+01  0.1021E+01  0.1018E+02  0.1017E+02
      9.654  0.1989E+01  0.1928E+01  0.1031E+02  0.1029E+02
      9.718  0.1926E+01  0.1985E+01  0.1043E+02  0.1042E+02
      9.783  0.1080E+01  0.1151E+01  0.1050E+02  0.1050E+02
      9.847  0.6635E+00  0.6771E+00  0.1054E+02  0.1054E+02
      9.912  0.6780E+00  0.6753E+00  0.1059E+02  0.1058E+02
      9.977  0.6268E+00  0.6344E+00  0.1063E+02  0.1062E+02
     10.041  0.5994E+00  0.5968E+00  0.1067E+02  0.1066E+02
     10.106  0.6036E+00  0.6113E+00  0.1071E+02  0.1070E+02
     10.171  0.3931E+00  0.4136E+00  0.1073E+02  0.1073E+02
     10.235  0.2408E+00  0.2375E+00  0.1075E+02  0.1074E+02
     10.300  0.3799E+00  0.3299E+00  0.1077E+02  0.1077E+02
     10.364  0.9350E+00  0.8248E+00  0.1083E+02  0.1082E+02
     10.429  0.1597E+01  0.1540E+01  0.1093E+02  0.1092E+02
     10.494  0.1460E+01  0.1545E+01  0.1103E+02  0.1102E+02
     10.558  0.9170E+00  0.9923E+00  0.1109E+02  0.1108E+02
     10.623  0.5969E+00  0.6343E+00  0.1113E+02  0.1112E+02
     10.688  0.4217E+00  0.4336E+00  0.1115E+02  0.1115E+02
     10.752  0.5583E+00  0.5303E+00  0.1119E+02  0.1119E+02
     10.817  0.9796E+00  0.9459E+00  0.1125E+02  0.1125E+02
     10.881  0.1033E+01  0.1056E+01  0.1132E+02  0.1132E+02
     10.946  0.6124E+00  0.6444E+00  0.1136E+02  0.1136E+02
     11.011  0.4103E+00  0.3978E+00  0.1139E+02  0.1138E+02
     11.075  0.5208E+00  0.4904E+00  0.1142E+02  0.1141E+02
     11.140  0.5257E+00  0.5464E+00  0.1145E+02  0.1145E+02
     11.205  0.2860E+00  0.3275E+00  0.1147E+02  0.1147E+02
     11.269  0.1089E+00  0.1283E+00  0.1148E+02  0.1148E+02
     11.334  0.6525E-01  0.6805E-01  0.1148E+02  0.1148E+02
     11.398  0.1329E+00  0.1219E+00  0.1149E+02  0.1149E+02
     11.463  0.3887E+00  0.3547E+00  0.1152E+02  0.1151E+02
     11.528  0.8738E+00  0.8286E+00  0.1157E+02  0.1157E+02
     11.592  0.1088E+01  0.1098E+01  0.1164E+02  0.1164E+02
     11.657  0.7300E+00  0.7685E+00  0.1169E+02  0.1169E+02
     11.722  0.4067E+00  0.4272E+00  0.1172E+02  0.1172E+02
     11.786  0.2220E+00  0.2373E+00  0.1173E+02  0.1173E+02
     11.851  0.9032E-01  0.9975E-01  0.1174E+02  0.1174E+02
     11.915  0.2869E-01  0.3222E-01  0.1174E+02  0.1174E+02
     11.980  0.6712E-02  0.7593E-02  0.1174E+02  0.1174E+02
     12.045  0.1871E-02  0.2121E-02  0.1174E+02  0.1174E+02
     12.109  0.5160E-03  0.5852E-03  0.1174E+02  0.1174E+02
     12.174  0.0000E+00  0.0000E+00  0.1174E+02  0.1174E+02
     12.238  0.2734E-03  0.1970E-03  0.1174E+02  0.1174E+02
     12.303  0.7219E-03  0.5201E-03  0.1174E+02  0.1174E+02
     12.368  0.2624E-02  0.1891E-02  0.1174E+02  0.1174E+02
     12.432  0.9487E-02  0.6853E-02  0.1174E+02  0.1174E+02
     12.497  0.3368E-01  0.2450E-01  0.1174E+02  0.1174E+02
     12.562  0.1122E+00  0.8358E-01  0.1175E+02  0.1175E+02
     12.626  0.3063E+00  0.2450E+00  0.1177E+02  0.1176E+02
     12.691  0.5228E+00  0.4854E+00  0.1180E+02  0.1180E+02
     12.755  0.4409E+00  0.4930E+00  0.1183E+02  0.1183E+02
     12.820  0.1996E+00  0.2548E+00  0.1185E+02  0.1184E+02
     12.885  0.6495E-01  0.8783E-01  0.1185E+02  0.1185E+02
     12.949  0.1898E-01  0.2604E-01  0.1185E+02  0.1185E+02
     13.014  0.5822E-02  0.7767E-02  0.1185E+02  0.1185E+02
     13.079  0.2179E-02  0.3937E-02  0.1185E+02  0.1185E+02
     13.143  0.7890E-02  0.7026E-02  0.1185E+02  0.1185E+02
     13.208  0.2813E-01  0.2511E-01  0.1185E+02  0.1185E+02
     13.272  0.9505E-01  0.8551E-01  0.1186E+02  0.1186E+02
     13.337  0.2708E+00  0.2495E+00  0.1188E+02  0.1188E+02
     13.402  0.5041E+00  0.4890E+00  0.1191E+02  0.1191E+02
     13.466  0.4723E+00  0.4896E+00  0.1194E+02  0.1194E+02
     13.531  0.2300E+00  0.2504E+00  0.1196E+02  0.1196E+02
     13.596  0.7761E-01  0.8626E-01  0.1196E+02  0.1196E+02
     13.660  0.2416E-01  0.2668E-01  0.1196E+02  0.1196E+02
     13.725  0.1226E-01  0.1235E-01  0.1196E+02  0.1196E+02
     13.789  0.2249E-01  0.2042E-01  0.1196E+02  0.1196E+02
     13.854  0.6421E-01  0.5816E-01  0.1197E+02  0.1197E+02
     13.919  0.1442E+00  0.1365E+00  0.1198E+02  0.1198E+02
     13.983  0.1754E+00  0.1778E+00  0.1199E+02  0.1199E+02
     14.048  0.1051E+00  0.1132E+00  0.1200E+02  0.1200E+02
     14.113  0.3890E-01  0.4332E-01  0.1200E+02  0.1200E+02
     14.177  0.1173E-01  0.1321E-01  0.1200E+02  0.1200E+02
     14.242  0.3307E-02  0.3739E-02  0.1200E+02  0.1200E+02
     14.306  0.9150E-03  0.1035E-02  0.1200E+02  0.1200E+02
     14.371  0.0000E+00  0.0000E+00  0.1200E+02  0.1200E+02
     14.436  0.0000E+00  0.0000E+00  0.1200E+02  0.1200E+02
     14.500  0.0000E+00  0.0000E+00  0.1200E+02  0.1200E+02
     14.565  0.0000E+00  0.0000E+00  0.1200E+02  0.1200E+02
     14.629  0.0000E+00  0.0000E+00  0.1200E+02  0.1200E+02
     14.694  0.0000E+00  0.0000E+00  0.1200E+02  0.1200E+02
     14.759  0.0000E+00  0.0000E+00  0.1200E+02  0.1200E+02
     14.823  0.0000E+00  0.0000E+00  0.1200E+02  0.1200E+02
     14.82336472     -4.56312711  301      5.63554619      1.00000000
     -4.563  0.0000E+00  0.0000E+00  0.0000E+00  0.0000E+00  0.0000E+00  0.0000E+00  0.0000E+00  0.0000E+00  0.0000E+00  0.0000E+00  0.0000E+00  0.0000E+00  0.0000E+00  0.0000E+00  0.0000E+00  0.0000E+00  0.0000E+00  0.0000E+00
     -4.499  0.0000E+00  0.0000E+00  0.0000E+00  0.0000E+00  0.0000E+00  0.0000E+00  0.0000E+00  0.0000E+00  0.0000E+00  0.0000E+00  0.0000E+00  0.0000E+00  0.0000E+00  0.0000E+00  0.0000E+00  0.0000E+00  0.0000E+00  0.0000E+00
     -4.434  0.0000E+00  0.0000E+00  0.0000E+00  0.0000E+00  0.0000E+00  0.0000E+00  0.0000E+00  0.0000E+00  0.0000E+00  0.0000E+00  0.0000E+00  0.0000E+00  0.0000E+00  0.0000E+00  0.0000E+00  0.0000E+00  0.0000E+00  0.0000E+00
     -4.369  0.0000E+00  0.0000E+00  0.0000E+00  0.0000E+00  0.0000E+00  0.0000E+00  0.0000E+00  0.0000E+00  0.0000E+00  0.0000E+00  0.0000E+00  0.0000E+00  0.0000E+00  0.0000E+00  0.0000E+00  0.0000E+00  0.0000E+00  0.0000E+00
     -4.305  0.0000E+00  0.0000E+00  0.0000E+00  0.0000E+00  0.0000E+00  0.0000E+00  0.0000E+00  0.0000E+00  0.0000E+00  0.0000E+00  0.0000E+00  0.0000E+00  0.0000E+00  0.0000E+00  0.0000E+00  0.0000E+00  0.0000E+00  0.0000E+00
     -4.240  0.0000E+00  0.0000E+00  0.0000E+00  0.0000E+00  0.0000E+00  0.0000E+00  0.0000E+00  0.0000E+00  0.0000E+00  0.0000E+00  0.0000E+00  0.0000E+00  0.0000E+00  0.0000E+00  0.0000E+00  0.0000E+00  0.0000E+00  0.0000E+00
     -4.175  0.0000E+00  0.0000E+00  0.0000E+00  0.0000E+00  0.0000E+00  0.0000E+00  0.0000E+00  0.0000E+00  0.0000E+00  0.0000E+00  0.0000E+00  0.0000E+00  0.0000E+00  0.0000E+00  0.0000E+00  0.0000E+00  0.0000E+00  0.0000E+00
     -4.111  0.6376E-05  0.5697E-05  0.2448E-07  0.2188E-07  0.2448E-07  0.2188E-07  0.2448E-07  0.2188E-07  0.0000E+00  0.0000E+00  0.0000E+00  0.0000E+00  0.0000E+00  0.0000E+00  0.0000E+00  0.0000E+00  0.0000E+00  0.0000E+00
     -4.046  0.1683E-04  0.1504E-04  0.6462E-07  0.5776E-07  0.6462E-07  0.5776E-07  0.6462E-07  0.5776E-07  0.0000E+00  0.0000E+00  0.0000E+00  0.0000E+00  0.0000E+00  0.0000E+00  0.0000E+00  0.0000E+00  0.0000E+00  0.0000E+00
     -3.982  0.6115E-04  0.5465E-04  0.2348E-06  0.2099E-06  0.2348E-06  0.2099E-06  0.2348E-06  0.2099E-06  0.0000E+00  0.0000E+00  0.0000E+00  0.0000E+00  0.0000E+00  0.0000E+00  0.0000E+00  0.0000E+00  0.0000E+00  0.0000E+00
     -3.917  0.2208E-03  0.1975E-03  0.8479E-06  0.7587E-06  0.8479E-06  0.7587E-06  0.8479E-06  0.7587E-06  0.0000E+00  0.0000E+00  0.0000E+00  0.0000E+00  0.0000E+00  0.0000E+00  0.0000E+00  0.0000E+00  0.0000E+00  0.0000E+00
     -3.852  0.7804E-03  0.7003E-03  0.2996E-05  0.2689E-05  0.2996E-05  0.2689E-05  0.2996E-05  0.2689E-05  0.0000E+00  0.0000E+00  0.0000E+00  0.0000E+00  0.0000E+00  0.0000E+00  0.0000E+00  0.0000E+00  0.0000E+00  0.0000E+00
     -3.788  0.2559E-02  0.2321E-02  0.9825E-05  0.8912E-05  0.9825E-05  0.8912E-05  0.9825E-05  0.8912E-05  0.0000E+00  0.0000E+00  0.0000E+00  0.0000E+00  0.0000E+00  0.0000E+00  0.0000E+00  0.0000E+00  0.0000E+00  0.0000E+00
     -3.723  0.6689E-02  0.6247E-02  0.2568E-04  0.2399E-04  0.2568E-04  0.2399E-04  0.2568E-04  0.2399E-04  0.0000E+00  0.0000E+00  0.0000E+00  0.0000E+00  0.0000E+00  0.0000E+00  0.0000E+00  0.0000E+00  0.0000E+00  0.0000E+00
     -3.658  0.1053E-01  0.1040E-01  0.4072E-04  0.4020E-04  0.4072E-04  0.4020E-04  0.4072E-04  0.4020E-04  0.0000E+00  0.0000E+00  0.0000E+00  0.0000E+00  0.0000E+00  0.0000E+00  0.0000E+00  0.0000E+00  0.0000E+00  0.0000E+00
     -3.594  0.8137E-02  0.8541E-02  0.3204E-04  0.3351E-04  0.3204E-04  0.3351E-04  0.3204E-04  0.3351E-04  0.0000E+00  0.0000E+00  0.0000E+00  0.0000E+00  0.0000E+00  0.0000E+00  0.0000E+00  0.0000E+00  0.0000E+00  0.0000E+00
     -3.529  0.3710E-02  0.4001E-02  0.1713E-04  0.1795E-04  0.1713E-04  0.1795E-04  0.1713E-04  0.1795E-04  0.0000E+00  0.0000E+00  0.0000E+00  0.0000E+00  0.0000E+00  0.0000E+00  0.0000E+00  0.0000E+00  0.0000E+00  0.0000E+00
     -3.465  0.2079E-02  0.2096E-02  0.1836E-04  0.1734E-04  0.1836E-04  0.1734E-04  0.1836E-04  0.1734E-04  0.0000E+00  0.0000E+00  0.0000E+00  0.0000E+00  0.0000E+00  0.0000E+00  0.0000E+00  0.0000E+00  0.0000E+00  0.0000E+00
     -3.400  0.3749E-02  0.3440E-02  0.5048E-04  0.4567E-04  0.5048E-04  0.4567E-04  0.5048E-04  0.4567E-04  0.0000E+00  0.0000E+00  0.0000E+00  0.0000E+00  0.0000E+00  0.0000E+00  0.0000E+00  0.0000E+00  0.0000E+00  0.0000E+00
     -3.335  0.1079E-01  0.9868E-02  0.1537E-03  0.1405E-03  0.1537E-03  0.1405E-03  0.1537E-03  0.1405E-03  0.0000E+00  0.0000E+00  0.0000E+00  0.0000E+00  0.0000E+00  0.0000E+00  0.0000E+00  0.0000E+00  0.0000E+00  0.0000E+00
     -3.271  0.2441E-01  0.2318E-01  0.3502E-03  0.3325E-03  0.3502E-03  0.3325E-03  0.3502E-03  0.3325E-03  0.0000E+00  0.0000E+00  0.0000E+00  0.0000E+00  0.0000E+00  0.0000E+00  0.0000E+00  0.0000E+00  0.0000E+00  0.0000E+00
     -3.206  0.3041E-01  0.3071E-01  0.4364E-03  0.4407E-03  0.4364E-03  0.4407E-03  0.4364E-03  0.4407E-03  0.0000E+00  0.0000E+00  0.0000E+00  0.0000E+00  0.0000E+00  0.0000E+00  0.0000E+00  0.0000E+00  0.0000E+00  0.0000E+00
     -3.141  0.1869E-01  0.1995E-01  0.2693E-03  0.2873E-03  0.2693E-03  0.2873E-03  0.2693E-03  0.2873E-03  0.0000E+00  0.0000E+00  0.0000E+00  0.0000E+00  0.0000E+00  0.0000E+00  0.0000E+00  0.0000E+00  0.0000E+00  0.0000E+00
     -3.077  0.7376E-02  0.8035E-02  0.1103E-03  0.1193E-03  0.1103E-03  0.1193E-03  0.1103E-03  0.1193E-03  0.0000E+00  0.0000E+00  0.0000E+00  0.0000E+00  0.0000E+00  0.0000E+00  0.0000E+00  0.0000E+00  0.0000E+00  0.0000E+00
     -3.012  0.3608E-02  0.3690E-02  0.6783E-04  0.6735E-04  0.6783E-04  0.6735E-04  0.6783E-04  0.6735E-04  0.0000E+00  0.0000E+00  0.0000E+00  0.0000E+00  0.0000E+00  0.0000E+00  0.0000E+00  0.0000E+00  0.0000E+00  0.0000E+00
     -2.948  0.5693E-02  0.5266E-02  0.1362E-03  0.1248E-03  0.1362E-03  0.1248E-03  0.1362E-03  0.1248E-03  0.0000E+00  0.0000E+00  0.0000E+00  0.0000E+00  0.0000E+00  0.0000E+00  0.0000E+00  0.0000E+00  0.0000E+00  0.0000E+00
     -2.883  0.1483E-01  0.1371E-01  0.3694E-03  0.3415E-03  0.3694E-03  0.3415E-03  0.3694E-03  0.3415E-03  0.0000E+00  0.0000E+00  0.0000E+00  0.0000E+00  0.0000E+00  0.0000E+00  0.0000E+00  0.0000E+00  0.0000E+00  0.0000E+00
     -2.818  0.2787E-01  0.2700E-01  0.6980E-03  0.6763E-03  0.6980E-03  0.6763E-03  0.6980E-03  0.6763E-03  0.0000E+00  0.0000E+00  0.0000E+00  0.0000E+00  0.0000E+00  0.0000E+00  0.0000E+00  0.0000E+00  0.0000E+00  0.0000E+00
     -2.754  0.2682E-01  0.2769E-01  0.6723E-03  0.6941E-03  0.6723E-03  0.6941E-03  0.6723E-03  0.6941E-03  0.0000E+00  0.0000E+00  0.0000E+00  0.0000E+00  0.0000E+00  0.0000E+00  0.0000E+00  0.0000E+00  0.0000E+00  0.0000E+00
     -2.689  0.1351E-01  0.1459E-01  0.3410E-03  0.3678E-03  0.3410E-03  0.3678E-03  0.3410E-03  0.3678E-03  0.0000E+00  0.0000E+00  0.0000E+00  0.0000E+00  0.0000E+00  0.0000E+00  0.0000E+00  0.0000E+00  0.0000E+00  0.0000E+00
     -2.624  0.5363E-02  0.5751E-02  0.1443E-03  0.1530E-03  0.1443E-03  0.1530E-03  0.1443E-03  0.1530E-03  0.0000E+00  0.0000E+00  0.0000E+00  0.0000E+00  0.0000E+00  0.0000E+00  0.0000E+00  0.0000E+00  0.0000E+00  0.0000E+00
     -2.560  0.4393E-02  0.4228E-02  0.1453E-03  0.1376E-03  0.1453E-03  0.1376E-03  0.1453E-03  0.1376E-03  0.0000E+00  0.0000E+00  0.0000E+00  0.0000E+00  0.0000E+00  0.0000E+00  0.0000E+00  0.0000E+00  0.0000E+00  0.0000E+00
     -2.495  0.1039E-01  0.9509E-02  0.3752E-03  0.3426E-03  0.3752E-03  0.3426E-03  0.3752E-03  0.3426E-03  0.0000E+00  0.0000E+00  0.0000E+00  0.0000E+00  0.0000E+00  0.0000E+00  0.0000E+00  0.0000E+00  0.0000E+00  0.0000E+00
     -2.431  0.2577E-01  0.2413E-01  0.9399E-03  0.8802E-03  0.9399E-03  0.8802E-03  0.9399E-03  0.8802E-03  0.0000E+00  0.0000E+00  0.0000E+00  0.0000E+00  0.0000E+00  0.0000E+00  0.0000E+00  0.0000E+00  0.0000E+00  0.0000E+00
     -2.366  0.3878E-01  0.3846E-01  0.1416E-02  0.1405E-02  0.1416E-02  0.1405E-02  0.1416E-02  0.1405E-02  0.0000E+00  0.0000E+00  0.0000E+00  0.0000E+00  0.0000E+00  0.0000E+00  0.0000E+00  0.0000E+00  0.0000E+00  0.0000E+00
     -2.301  0.2870E-01  0.3023E-01  0.1050E-02  0.1106E-02  0.1050E-02  0.1106E-02  0.1050E-02  0.1106E-02  0.0000E+00  0.0000E+00  0.0000E+00  0.0000E+00  0.0000E+00  0.0000E+00  0.0000E+00  0.0000E+00  0.0000E+00  0.0000E+00
     -2.237  0.1244E-01  0.1351E-01  0.4610E-03  0.4992E-03  0.4610E-03  0.4992E-03  0.4610E-03  0.4992E-03  0.0000E+00  0.0000E+00  0.0000E+00  0.0000E+00  0.0000E+00  0.0000E+00  0.0000E+00  0.0000E+00  0.0000E+00  0.0000E+00
     -2.172  0.5820E-02  0.6016E-02  0.2362E-03  0.2410E-03  0.2362E-03  0.2410E-03  0.2362E-03  0.2410E-03  0.0000E+00  0.0000E+00  0.0000E+00  0.0000E+00  0.0000E+00  0.0000E+00  0.0000E+00  0.0000E+00  0.0000E+00  0.0000E+00
     -2.108  0.8284E-02  0.7688E-02  0.3842E-03  0.3544E-03  0.3842E-03  0.3544E-03  0.3842E-03  0.3544E-03  0.0000E+00  0.0000E+00  0.0000E+00  0.0000E+00  0.0000E+00  0.0000E+00  0.0000E+00  0.0000E+00  0.0000E+00  0.0000E+00
     -2.043  0.2228E-01  0.2047E-01  0.1062E-02  0.9757E-03  0.1062E-02  0.9757E-03  0.1062E-02  0.9757E-03  0.0000E+00  0.0000E+00  0.0000E+00  0.0000E+00  0.0000E+00  0.0000E+00  0.0000E+00  0.0000E+00  0.0000E+00  0.0000E+00
     -1.978  0.4755E-01  0.4542E-01  0.2275E-02  0.2173E-02  0.2275E-02  0.2173E-02  0.2275E-02  0.2173E-02  0.0000E+00  0.0000E+00  0.0000E+00  0.0000E+00  0.0000E+00  0.0000E+00  0.0000E+00  0.0000E+00  0.0000E+00  0.0000E+00
     -1.914  0.5463E-01  0.5556E-01  0.2614E-02  0.2659E-02  0.2614E-02  0.2659E-02  0.2614E-02  0.2659E-02  0.0000E+00  0.0000E+00  0.0000E+00  0.0000E+00  0.0000E+00  0.0000E+00  0.0000E+00  0.0000E+00  0.0000E+00  0.0000E+00
     -1.849  0.3126E-01  0.3354E-01  0.1497E-02  0.1606E-02  0.1497E-02  0.1606E-02  0.1497E-02  0.1606E-02  0.0000E+00  0.0000E+00  0.0000E+00  0.0000E+00  0.0000E+00  0.0000E+00  0.0000E+00  0.0000E+00  0.0000E+00  0.0000E+00
     -1.784  0.1173E-01  0.1284E-01  0.5663E-03  0.6191E-03  0.5663E-03  0.6191E-03  0.5663E-03  0.6191E-03  0.0000E+00  0.0000E+00  0.0000E+00  0.0000E+00  0.0000E+00  0.0000E+00  0.0000E+00  0.0000E+00  0.0000E+00  0.0000E+00
     -1.720  0.5070E-02  0.5276E-02  0.2611E-03  0.2691E-03  0.2611E-03  0.2691E-03  0.2611E-03  0.2691E-03  0.0000E+00  0.0000E+00  0.0000E+00  0.0000E+00  0.0000E+00  0.0000E+00  0.0000E+00  0.0000E+00  0.0000E+00  0.0000E+00
     -1.655  0.6643E-02  0.6211E-02  0.3796E-03  0.3532E-03  0.3796E-03  0.3532E-03  0.3796E-03  0.3532E-03  0.0000E+00  0.0000E+00  0.0000E+00  0.0000E+00  0.0000E+00  0.0000E+00  0.0000E+00  0.0000E+00  0.0000E+00  0.0000E+00
     -1.591  0.1587E-01  0.1478E-01  0.9285E-03  0.8649E-03  0.9285E-03  0.8649E-03  0.9285E-03  0.8649E-03  0.0000E+00  0.0000E+00  0.0000E+00  0.0000E+00  0.0000E+00  0.0000E+00  0.0000E+00  0.0000E+00  0.0000E+00  0.0000E+00
     -1.526  0.2685E-01  0.2628E-01  0.1577E-02  0.1544E-02  0.1577E-02  0.1544E-02  0.1577E-02  0.1544E-02  0.0000E+00  0.0000E+00  0.0000E+00  0.0000E+00  0.0000E+00  0.0000E+00  0.0000E+00  0.0000E+00  0.0000E+00  0.0000E+00
     -1.461  0.2289E-01  0.2385E-01  0.1345E-02  0.1402E-02  0.1345E-02  0.1402E-02  0.1345E-02  0.1402E-02  0.0000E+00  0.0000E+00  0.0000E+00  0.0000E+00  0.0000E+00  0.0000E+00  0.0000E+00  0.0000E+00  0.0000E+00  0.0000E+00
     -1.397  0.1079E-01  0.1167E-01  0.6397E-03  0.6906E-03  0.6397E-03  0.6906E-03  0.6397E-03  0.6906E-03  0.0000E+00  0.0000E+00  0.0000E+00  0.0000E+00  0.0000E+00  0.0000E+00  0.0000E+00  0.0000E+00  0.0000E+00  0.0000E+00
     -1.332  0.4944E-02  0.5148E-02  0.3128E-03  0.3225E-03  0.3128E-03  0.3225E-03  0.3128E-03  0.3225E-03  0.0000E+00  0.0000E+00  0.0000E+00  0.0000E+00  0.0000E+00  0.0000E+00  0.0000E+00  0.0000E+00  0.0000E+00  0.0000E+00