   4   4   1   0
  0.1458137E+02  0.3878104E-09  0.3878104E-09  0.3878104E-09  0.5000000E-15
  1.000000000000000E-004
  CAR 
 unknown system                          
     20.95239373     -3.57493034  301      9.21360117      1.00000000
     -3.575  0.0000E+00  0.0000E+00  0.0000E+00  0.0000E+00
     -3.493  0.0000E+00  0.0000E+00  0.0000E+00  0.0000E+00
     -3.411  0.0000E+00  0.0000E+00  0.0000E+00  0.0000E+00
     -3.330  0.0000E+00  0.0000E+00  0.0000E+00  0.0000E+00
     -3.248  0.0000E+00  0.0000E+00  0.0000E+00  0.0000E+00
     -3.166  0.0000E+00  0.0000E+00  0.0000E+00  0.0000E+00
     -3.084  0.0000E+00  0.0000E+00  0.0000E+00  0.0000E+00
     -3.003  0.0000E+00  0.0000E+00  0.0000E+00  0.0000E+00
     -2.921  0.4503E-04  0.4344E-04  0.3681E-05  0.3552E-05
     -2.839  0.1859E-03  0.1793E-03  0.1888E-04  0.1821E-04
     -2.757  0.9512E-03  0.9178E-03  0.9664E-04  0.9325E-04
     -2.676  0.4818E-02  0.4651E-02  0.4905E-03  0.4735E-03
     -2.594  0.2318E-01  0.2243E-01  0.2386E-02  0.2307E-02
     -2.512  0.8907E-01  0.8693E-01  0.9668E-02  0.9414E-02
     -2.430  0.1737E+00  0.1730E+00  0.2387E-01  0.2356E-01
     -2.349  0.1173E+00  0.1196E+00  0.3346E-01  0.3334E-01
     -2.267  0.3566E-01  0.3674E-01  0.3638E-01  0.3634E-01
     -2.185  0.1243E-01  0.1252E-01  0.3739E-01  0.3737E-01
     -2.103  0.2643E-01  0.2563E-01  0.3955E-01  0.3946E-01
     -2.022  0.1148E+00  0.1112E+00  0.4896E-01  0.4859E-01
     -1.940  0.3726E+00  0.3658E+00  0.7943E-01  0.7850E-01
     -1.858  0.5142E+00  0.5167E+00  0.1215E+00  0.1207E+00
     -1.776  0.2479E+00  0.2541E+00  0.1417E+00  0.1415E+00
     -1.695  0.6450E-01  0.6656E-01  0.1470E+00  0.1470E+00
     -1.613  0.2202E-01  0.2217E-01  0.1488E+00  0.1488E+00
     -1.531  0.4723E-01  0.4583E-01  0.1527E+00  0.1525E+00
     -1.449  0.1894E+00  0.1842E+00  0.1682E+00  0.1676E+00
     -1.367  0.4757E+00  0.4707E+00  0.2071E+00  0.2061E+00
     -1.286  0.4383E+00  0.4442E+00  0.2429E+00  0.2424E+00
     -1.204  0.1566E+00  0.1612E+00  0.2557E+00  0.2556E+00
     -1.122  0.3991E-01  0.4098E-01  0.2590E+00  0.2590E+00
     -1.040  0.3014E-01  0.2960E-01  0.2615E+00  0.2614E+00
     -0.959  0.1094E+00  0.1060E+00  0.2706E+00  0.2702E+00
     -0.877  0.4008E+00  0.3920E+00  0.3033E+00  0.3022E+00
     -0.795  0.7018E+00  0.7012E+00  0.3607E+00  0.3596E+00
     -0.713  0.4227E+00  0.4317E+00  0.3953E+00  0.3949E+00
     -0.632  0.1208E+00  0.1245E+00  0.4051E+00  0.4050E+00
     -0.550  0.3871E-01  0.3912E-01  0.4083E+00  0.4082E+00
     -0.468  0.7318E-01  0.7108E-01  0.4143E+00  0.4140E+00
     -0.386  0.3020E+00  0.2934E+00  0.4391E+00  0.4381E+00
     -0.305  0.8635E+00  0.8513E+00  0.5097E+00  0.5077E+00
     -0.223  0.9615E+00  0.9706E+00  0.5883E+00  0.5871E+00
     -0.141  0.3904E+00  0.4011E+00  0.6202E+00  0.6199E+00
     -0.059  0.9539E-01  0.9843E-01  0.6280E+00  0.6279E+00
      0.022  0.3316E-01  0.3334E-01  0.6307E+00  0.6307E+00
      0.104  0.6908E-01  0.7071E-01  0.6367E+00  0.6364E+00
      0.186  0.2659E+00  0.2596E+00  0.6585E+00  0.6577E+00
      0.268  0.5207E+00  0.5187E+00  0.7010E+00  0.7001E+00
      0.349  0.3533E+00  0.3600E+00  0.7299E+00  0.7296E+00
      0.431  0.1072E+00  0.1104E+00  0.7387E+00  0.7386E+00
      0.513  0.3511E-01  0.3547E-01  0.7416E+00  0.7415E+00
      0.595  0.6720E-01  0.6529E-01  0.7471E+00  0.7468E+00
      0.676  0.2808E+00  0.2728E+00  0.7701E+00  0.7692E+00
      0.758  0.8329E+00  0.8204E+00  0.8382E+00  0.8363E+00
      0.840  0.9836E+00  0.9915E+00  0.9186E+00  0.9174E+00
      0.922  0.4184E+00  0.4293E+00  0.9528E+00  0.9525E+00
      1.004  0.1091E+00  0.1122E+00  0.9617E+00  0.9616E+00
      1.085  0.6399E-01  0.6325E-01  0.9670E+00  0.9668E+00
      1.167  0.2132E+00  0.2068E+00  0.9844E+00  0.9837E+00
      1.249  0.8031E+00  0.7845E+00  0.1050E+01  0.1048E+01
      1.331  0.1563E+01  0.1558E+01  0.1178E+01  0.1175E+01
      1.412  0.1053E+01  0.1072E+01  0.1264E+01  0.1263E+01
      1.494  0.3128E+00  0.3224E+00  0.1290E+01  0.1289E+01
      1.576  0.7393E-01  0.7599E-01  0.1296E+01  0.1296E+01
      1.658  0.4801E-01  0.4735E-01  0.1300E+01  0.1299E+01
      1.739  0.1532E+00  0.1490E+00  0.1312E+01  0.1312E+01
      1.821  0.4348E+00  0.4289E+00  0.1348E+01  0.1347E+01
      1.903  0.4787E+00  0.4832E+00  0.1387E+01  0.1386E+01
      1.985  0.1939E+00  0.1990E+00  0.1403E+01  0.1403E+01
      2.066  0.5366E-01  0.5489E-01  0.1407E+01  0.1407E+01
      2.148  0.5041E-01  0.4938E-01  0.1411E+01  0.1411E+01
      2.230  0.1954E+00  0.1913E+00  0.1428E+01  0.1427E+01
      2.312  0.7111E+00  0.6962E+00  0.1486E+01  0.1484E+01
      2.393  0.1229E+01  0.1228E+01  0.1586E+01  0.1584E+01
      2.475  0.7300E+00  0.7452E+00  0.1646E+01  0.1645E+01
      2.557  0.2084E+00  0.2145E+00  0.1663E+01  0.1663E+01
      2.639  0.7248E-01  0.7296E-01  0.1669E+01  0.1669E+01
      2.720  0.1541E+00  0.1499E+00  0.1681E+01  0.1681E+01
      2.802  0.6075E+00  0.5923E+00  0.1731E+01  0.1730E+01
      2.884  0.1461E+01  0.1448E+01  0.1851E+01  0.1848E+01
      2.966  0.1270E+01  0.1287E+01  0.1954E+01  0.1953E+01
      3.047  0.4374E+00  0.4495E+00  0.1990E+01  0.1990E+01
      3.129  0.1094E+00  0.1122E+00  0.1999E+01  0.1999E+01
      3.211  0.7818E-01  0.7705E-01  0.2006E+01  0.2005E+01
      3.293  0.2646E+00  0.2575E+00  0.2028E+01  0.2027E+01
      3.374  0.8073E+00  0.7955E+00  0.2094E+01  0.2092E+01
      3.456  0.9995E+00  0.1006E+01  0.2175E+01  0.2174E+01
      3.538  0.4415E+00  0.4519E+00  0.2211E+01  0.2211E+01
      3.620  0.1189E+00  0.1218E+00  0.2221E+01  0.2221E+01
      3.702  0.7944E-01  0.7837E-01  0.2228E+01  0.2227E+01
      3.783  0.2746E+00  0.2671E+00  0.2250E+01  0.2249E+01
      3.865  0.9545E+00  0.9364E+00  0.2328E+01  0.2326E+01
      3.947  0.1569E+01  0.1570E+01  0.2457E+01  0.2454E+01
      4.029  0.9008E+00  0.9188E+00  0.2530E+01  0.2529E+01
      4.110  0.2546E+00  0.2617E+00  0.2551E+01  0.2551E+01
      4.192  0.8963E-01  0.9015E-01  0.2558E+01  0.2558E+01
      4.274  0.1921E+00  0.1871E+00  0.2574E+01  0.2573E+01
      4.356  0.7197E+00  0.7038E+00  0.2633E+01  0.2631E+01
      4.437  0.1524E+01  0.1516E+01  0.2758E+01  0.2755E+01
      4.519  0.1145E+01  0.1163E+01  0.2851E+01  0.2850E+01
      4.601  0.3665E+00  0.3762E+00  0.2881E+01  0.2881E+01
      4.683  0.1027E+00  0.1045E+00  0.2890E+01  0.2890E+01
      4.764  0.1298E+00  0.1271E+00  0.2900E+01  0.2900E+01
      4.846  0.4598E+00  0.4498E+00  0.2938E+01  0.2937E+01
      4.928  0.1012E+01  0.1006E+01  0.3021E+01  0.3019E+01
      5.010  0.7850E+00  0.7963E+00  0.3085E+01  0.3084E+01
      5.091  0.2556E+00  0.2621E+00  0.3106E+01  0.3106E+01
      5.173  0.7868E-01  0.7985E-01  0.3112E+01  0.3112E+01
      5.255  0.1206E+00  0.1189E+00  0.3122E+01  0.3122E+01
      5.337  0.3732E+00  0.3687E+00  0.3153E+01  0.3152E+01
      5.418  0.6045E+00  0.6029E+00  0.3202E+01  0.3202E+01
      5.500  0.5712E+00  0.5683E+00  0.3249E+01  0.3248E+01
      5.582  0.6042E+00  0.6051E+00  0.3299E+01  0.3298E+01
      5.664  0.3735E+00  0.3794E+00  0.3329E+01  0.3329E+01
      5.745  0.3209E+00  0.3189E+00  0.3355E+01  0.3355E+01
      5.827  0.9121E+00  0.8981E+00  0.3430E+01  0.3428E+01
      5.909  0.1923E+01  0.1910E+01  0.3587E+01  0.3584E+01
      5.991  0.1871E+01  0.1879E+01  0.3740E+01  0.3738E+01
      6.072  0.1135E+01  0.1145E+01  0.3833E+01  0.3832E+01
      6.154  0.5325E+00  0.5424E+00  0.3877E+01  0.3876E+01
      6.236  0.2417E+00  0.2439E+00  0.3896E+01  0.3896E+01
      6.318  0.3838E+00  0.3802E+00  0.3928E+01  0.3927E+01
      6.400  0.6240E+00  0.6219E+00  0.3979E+01  0.3978E+01
      6.481  0.6799E+00  0.6740E+00  0.4035E+01  0.4033E+01
      6.563  0.1049E+01  0.1042E+01  0.4120E+01  0.4119E+01
      6.645  0.9042E+00  0.9149E+00  0.4194E+01  0.4193E+01
      6.727  0.4573E+00  0.4624E+00  0.4232E+01  0.4231E+01
      6.808  0.6535E+00  0.6481E+00  0.4285E+01  0.4284E+01
      6.890  0.1078E+01  0.1078E+01  0.4373E+01  0.4372E+01
      6.972  0.7096E+00  0.7157E+00  0.4432E+01  0.4431E+01
      7.054  0.3397E+00  0.3413E+00  0.4459E+01  0.4459E+01
      7.135  0.1955E+00  0.1978E+00  0.4475E+01  0.4475E+01
      7.217  0.8988E-01  0.9101E-01  0.4483E+01  0.4483E+01
      7.299  0.1413E+00  0.1393E+00  0.4494E+01  0.4494E+01
      7.381  0.5355E+00  0.5271E+00  0.4538E+01  0.4537E+01
      7.462  0.1337E+01  0.1325E+01  0.4648E+01  0.4646E+01
      7.544  0.1682E+01  0.1678E+01  0.4785E+01  0.4783E+01
      7.626  0.1188E+01  0.1201E+01  0.4882E+01  0.4881E+01
      7.708  0.4228E+00  0.4327E+00  0.4917E+01  0.4916E+01
      7.789  0.1230E+00  0.1251E+00  0.4927E+01  0.4927E+01
      7.871  0.1419E+00  0.1397E+00  0.4939E+01  0.4938E+01
      7.953  0.3916E+00  0.3867E+00  0.4971E+01  0.4970E+01
      8.035  0.5086E+00  0.5109E+00  0.5013E+01  0.5012E+01
      8.116  0.2438E+00  0.2479E+00  0.5032E+01  0.5032E+01
      8.198  0.1217E+00  0.1220E+00  0.5042E+01  0.5042E+01
      8.280  0.3110E+00  0.3066E+00  0.5068E+01  0.5067E+01
      8.362  0.1020E+01  0.1009E+01  0.5151E+01  0.5150E+01
      8.443  0.1678E+01  0.1675E+01  0.5288E+01  0.5287E+01
      8.525  0.1324E+01  0.1328E+01  0.5397E+01  0.5395E+01
      8.607  0.7465E+00  0.7536E+00  0.5458E+01  0.5457E+01
      8.689  0.3330E+00  0.3340E+00  0.5485E+01  0.5484E+01
      8.770  0.4243E+00  0.4128E+00  0.5520E+01  0.5518E+01
      8.852  0.9782E+00  0.9680E+00  0.5600E+01  0.5597E+01
      8.934  0.1432E+01  0.1438E+01  0.5717E+01  0.5715E+01
      9.016  0.1219E+01  0.1225E+01  0.5817E+01  0.5815E+01
      9.098  0.9308E+00  0.9291E+00  0.5893E+01  0.5891E+01
      9.179  0.8770E+00  0.8655E+00  0.5965E+01  0.5962E+01
      9.261  0.1132E+01  0.1124E+01  0.6057E+01  0.6054E+01
      9.343  0.8128E+00  0.8340E+00  0.6124E+01  0.6122E+01
      9.425  0.3285E+00  0.3387E+00  0.6151E+01  0.6150E+01
      9.506  0.3464E+00  0.3440E+00  0.6179E+01  0.6178E+01
      9.588  0.5391E+00  0.5390E+00  0.6223E+01  0.6222E+01
      9.670  0.3387E+00  0.3439E+00  0.6251E+01  0.6251E+01
      9.752  0.1589E+00  0.1600E+00  0.6264E+01  0.6264E+01
      9.833  0.3213E+00  0.3161E+00  0.6290E+01  0.6290E+01
      9.915  0.9424E+00  0.9296E+00  0.6367E+01  0.6366E+01
      9.997  0.1353E+01  0.1344E+01  0.6478E+01  0.6476E+01
     10.079  0.9684E+00  0.9763E+00  0.6557E+01  0.6556E+01
     10.160  0.5016E+00  0.5087E+00  0.6598E+01  0.6597E+01
     10.242  0.6322E+00  0.6179E+00  0.6650E+01  0.6648E+01
     10.324  0.1088E+01  0.1083E+01  0.6739E+01  0.6736E+01
     10.406  0.8262E+00  0.8440E+00  0.6807E+01  0.6805E+01
     10.487  0.7049E+00  0.7071E+00  0.6864E+01  0.6863E+01
     10.569  0.1080E+01  0.1079E+01  0.6952E+01  0.6951E+01
     10.651  0.7782E+00  0.7862E+00  0.7016E+01  0.7016E+01
     10.733  0.3650E+00  0.3663E+00  0.7046E+01  0.7046E+01
     10.814  0.6186E+00  0.6082E+00  0.7097E+01  0.7095E+01
     10.896  0.1442E+01  0.1419E+01  0.7215E+01  0.7211E+01
     10.978  0.1881E+01  0.1865E+01  0.7369E+01  0.7364E+01
     11.060  0.1568E+01  0.1589E+01  0.7497E+01  0.7494E+01
     11.141  0.8382E+00  0.8604E+00  0.7565E+01  0.7564E+01
     11.223  0.2806E+00  0.2894E+00  0.7588E+01  0.7588E+01
     11.305  0.1373E+00  0.1381E+00  0.7600E+01  0.7600E+01
     11.387  0.3050E+00  0.3018E+00  0.7625E+01  0.7625E+01
     11.468  0.5265E+00  0.5262E+00  0.7668E+01  0.7668E+01
     11.550  0.3226E+00  0.3261E+00  0.7695E+01  0.7694E+01
     11.632  0.9911E-01  0.1005E+00  0.7703E+01  0.7703E+01
     11.714  0.6337E-01  0.6272E-01  0.7708E+01  0.7708E+01
     11.796  0.2123E+00  0.2084E+00  0.7725E+01  0.7725E+01
     11.877  0.7487E+00  0.7369E+00  0.7786E+01  0.7785E+01
     11.959  0.1358E+01  0.1346E+01  0.7898E+01  0.7895E+01
     12.041  0.1154E+01  0.1157E+01  0.7992E+01  0.7990E+01
     12.123  0.7303E+00  0.7347E+00  0.8052E+01  0.8050E+01
     12.204  0.8841E+00  0.8675E+00  0.8124E+01  0.8121E+01
     12.286  0.1485E+01  0.1449E+01  0.8245E+01  0.8239E+01
     12.368  0.2141E+01  0.2123E+01  0.8420E+01  0.8413E+01
     12.450  0.1501E+01  0.1552E+01  0.8543E+01  0.8540E+01
     12.531  0.5274E+00  0.5579E+00  0.8586E+01  0.8585E+01
     12.613  0.3226E+00  0.3226E+00  0.8613E+01  0.8612E+01
     12.695  0.7763E+00  0.7598E+00  0.8676E+01  0.8674E+01
     12.777  0.1282E+01  0.1284E+01  0.8782E+01  0.8779E+01
     12.858  0.1058E+01  0.1075E+01  0.8868E+01  0.8867E+01
     12.940  0.5648E+00  0.5714E+00  0.8914E+01  0.8914E+01
     13.022  0.2787E+00  0.2789E+00  0.8937E+01  0.8937E+01
     13.104  0.2265E+00  0.2268E+00  0.8956E+01  0.8955E+01
     13.185  0.1999E+00  0.1976E+00  0.8972E+01  0.8972E+01
     13.267  0.5071E+00  0.4937E+00  0.9014E+01  0.9012E+01
     13.349  0.1463E+01  0.1441E+01  0.9133E+01  0.9130E+01
     13.431  0.2461E+01  0.2444E+01  0.9335E+01  0.9330E+01
     13.512  0.2230E+01  0.2239E+01  0.9517E+01  0.9513E+01
     13.594  0.1034E+01  0.1066E+01  0.9601E+01  0.9600E+01
     13.676  0.2749E+00  0.2881E+00  0.9624E+01  0.9623E+01
     13.758  0.5969E-01  0.6270E-01  0.9629E+01  0.9629E+01
     13.839  0.2459E-01  0.2401E-01  0.9631E+01  0.9631E+01
     13.921  0.8136E-01  0.7566E-01  0.9638E+01  0.9637E+01
     14.003  0.3799E+00  0.3556E+00  0.9669E+01  0.9666E+01
     14.085  0.1335E+01  0.1277E+01  0.9778E+01  0.9771E+01
     14.167  0.2551E+01  0.2527E+01  0.9987E+01  0.9977E+01
     14.248  0.2640E+01  0.2681E+01  0.1020E+02  0.1020E+02
     14.330  0.1696E+01  0.1742E+01  0.1034E+02  0.1034E+02
     14.412  0.6353E+00  0.6539E+00  0.1039E+02  0.1039E+02
     14.494  0.2052E+00  0.2060E+00  0.1041E+02  0.1041E+02
     14.575  0.2775E+00  0.2617E+00  0.1043E+02  0.1043E+02
     14.657  0.7877E+00  0.7577E+00  0.1050E+02  0.1049E+02
     14.739  0.1023E+01  0.1035E+01  0.1058E+02  0.1058E+02
     14.821  0.5125E+00  0.5363E+00  0.1062E+02  0.1062E+02
     14.902  0.3260E+00  0.3243E+00  0.1065E+02  0.1065E+02
     14.984  0.5230E+00  0.5164E+00  0.1069E+02  0.1069E+02
     15.066  0.4525E+00  0.4630E+00  0.1073E+02  0.1073E+02
     15.148  0.3024E+00  0.3019E+00  0.1075E+02  0.1075E+02
     15.229  0.6946E+00  0.6692E+00  0.1081E+02  0.1081E+02
     15.311  0.1501E+01  0.1483E+01  0.1093E+02  0.1093E+02
     15.393  0.1208E+01  0.1238E+01  0.1103E+02  0.1103E+02
     15.475  0.4038E+00  0.4232E+00  0.1107E+02  0.1107E+02
     15.556  0.1193E+00  0.1233E+00  0.1108E+02  0.1108E+02
     15.638  0.1599E+00  0.1576E+00  0.1109E+02  0.1109E+02
     15.720  0.4774E+00  0.4760E+00  0.1113E+02  0.1113E+02
     15.802  0.8389E+00  0.8482E+00  0.1120E+02  0.1120E+02
     15.883  0.7652E+00  0.7521E+00  0.1126E+02  0.1126E+02
     15.965  0.8523E+00  0.8204E+00  0.1133E+02  0.1133E+02
     16.047  0.1092E+01  0.1094E+01  0.1142E+02  0.1141E+02
     16.129  0.5810E+00  0.6080E+00  0.1147E+02  0.1146E+02
     16.210  0.1533E+00  0.1638E+00  0.1148E+02  0.1148E+02
     16.292  0.3297E-01  0.3529E-01  0.1148E+02  0.1148E+02
     16.374  0.1118E-01  0.1140E-01  0.1148E+02  0.1148E+02
     16.456  0.2458E-01  0.2333E-01  0.1148E+02  0.1148E+02
     16.537  0.1194E+00  0.1136E+00  0.1149E+02  0.1149E+02
     16.619  0.4768E+00  0.4589E+00  0.1153E+02  0.1153E+02
     16.701  0.1020E+01  0.1011E+01  0.1162E+02  0.1161E+02
     16.783  0.7660E+00  0.7859E+00  0.1168E+02  0.1168E+02
     16.865  0.2438E+00  0.2548E+00  0.1170E+02  0.1170E+02
     16.946  0.6978E-01  0.7146E-01  0.1170E+02  0.1170E+02
     17.028  0.8158E-01  0.7857E-01  0.1171E+02  0.1171E+02
     17.110  0.1651E+00  0.1624E+00  0.1172E+02  0.1172E+02
     17.192  0.1369E+00  0.1410E+00  0.1174E+02  0.1174E+02
     17.273  0.4559E-01  0.4829E-01  0.1174E+02  0.1174E+02
     17.355  0.1014E-01  0.1083E-01  0.1174E+02  0.1174E+02
     17.437  0.2031E-02  0.2174E-02  0.1174E+02  0.1174E+02
     17.519  0.0000E+00  0.0000E+00  0.1174E+02  0.1174E+02
     17.600  0.0000E+00  0.0000E+00  0.1174E+02  0.1174E+02
     17.682  0.1197E-03  0.1003E-03  0.1174E+02  0.1174E+02
     17.764  0.4943E-03  0.4143E-03  0.1174E+02  0.1174E+02
     17.846  0.2530E-02  0.2122E-02  0.1174E+02  0.1174E+02
     17.927  0.1283E-01  0.1078E-01  0.1174E+02  0.1174E+02
     18.009  0.6220E-01  0.5272E-01  0.1175E+02  0.1175E+02
     18.091  0.2459E+00  0.2164E+00  0.1177E+02  0.1176E+02
     18.173  0.5135E+00  0.4973E+00  0.1181E+02  0.1180E+02
     18.254  0.3744E+00  0.4073E+00  0.1184E+02  0.1184E+02
     18.336  0.1157E+00  0.1346E+00  0.1185E+02  0.1185E+02
     18.418  0.2517E-01  0.2987E-01  0.1185E+02  0.1185E+02
     18.500  0.5017E-02  0.5979E-02  0.1185E+02  0.1185E+02
     18.581  0.1230E-03  0.1165E-03  0.1185E+02  0.1185E+02
     18.663  0.5076E-03  0.4810E-03  0.1185E+02  0.1185E+02
     18.745  0.2598E-02  0.2462E-02  0.1185E+02  0.1185E+02
     18.827  0.1317E-01  0.1249E-01  0.1185E+02  0.1185E+02
     18.908  0.6375E-01  0.6064E-01  0.1186E+02  0.1186E+02
     18.990  0.2505E+00  0.2412E+00  0.1188E+02  0.1188E+02
     19.072  0.5154E+00  0.5114E+00  0.1192E+02  0.1192E+02
     19.154  0.3693E+00  0.3795E+00  0.1195E+02  0.1195E+02
     19.235  0.1130E+00  0.1184E+00  0.1196E+02  0.1196E+02
     19.317  0.2452E-01  0.2584E-01  0.1196E+02  0.1196E+02
     19.399  0.4961E-02  0.5225E-02  0.1196E+02  0.1196E+02
     19.481  0.3101E-03  0.2902E-03  0.1196E+02  0.1196E+02
     19.563  0.1584E-02  0.1483E-02  0.1196E+02  0.1196E+02
     19.644  0.7955E-02  0.7459E-02  0.1196E+02  0.1196E+02
     19.726  0.3677E-01  0.3469E-01  0.1197E+02  0.1197E+02
     19.808  0.1213E+00  0.1171E+00  0.1198E+02  0.1198E+02
     19.890  0.1724E+00  0.1737E+00  0.1199E+02  0.1199E+02
     19.971  0.8514E-01  0.8907E-01  0.1200E+02  0.1200E+02
     20.053  0.2181E-01  0.2318E-01  0.1200E+02  0.1200E+02
     20.135  0.4514E-02  0.4818E-02  0.1200E+02  0.1200E+02
     20.217  0.8905E-03  0.9512E-03  0.1200E+02  0.1200E+02
     20.298  0.0000E+00  0.0000E+00  0.1200E+02  0.1200E+02
     20.380  0.0000E+00  0.0000E+00  0.1200E+02  0.1200E+02
     20.462  0.0000E+00  0.0000E+00  0.1200E+02  0.1200E+02
     20.544  0.0000E+00  0.0000E+00  0.1200E+02  0.1200E+02
     20.625  0.0000E+00  0.0000E+00  0.1200E+02  0.1200E+02
     20.707  0.0000E+00  0.0000E+00  0.1200E+02  0.1200E+02
     20.789  0.0000E+00  0.0000E+00  0.1200E+02  0.1200E+02
     20.871  0.0000E+00  0.0000E+00  0.1200E+02  0.1200E+02
     20.952  0.0000E+00  0.0000E+00  0.1200E+02  0.1200E+02
     20.95239373     -3.57493034  301      9.21360117      1.00000000
     -3.575  0.0000E+00  0.0000E+00  0.0000E+00  0.0000E+00  0.0000E+00  0.0000E+00  0.0000E+00  0.0000E+00  0.0000E+00  0.0000E+00  0.0000E+00  0.0000E+00  0.0000E+00  0.0000E+00  0.0000E+00  0.0000E+00  0.0000E+00  0.0000E+00
     -3.493  0.0000E+00  0.0000E+00  0.0000E+00  0.0000E+00  0.0000E+00  0.0000E+00  0.0000E+00  0.0000E+00  0.0000E+00  0.0000E+00  0.0000E+00  0.0000E+00  0.0000E+00  0.0000E+00  0.0000E+00  0.0000E+00  0.0000E+00  0.0000E+00
     -3.411  0.0000E+00  0.0000E+00  0.0000E+00  0.0000E+00  0.0000E+00  0.0000E+00  0.0000E+00  0.0000E+00  0.0000E+00  0.0000E+00  0.0000E+00  0.0000E+00  0.0000E+00  0.0000E+00  0.0000E+00  0.0000E+00  0.0000E+00  0.0000E+00
     -3.330  0.0000E+00  0.0000E+00  0.0000E+00  0.0000E+00  0.0000E+00  0.0000E+00  0.0000E+00  0.0000E+00  0.0000E+00  0.0000E+00  0.0000E+00  0.0000E+00  0.0000E+00  0.0000E+00  0.0000E+00  0.0000E+00  0.0000E+00  0.0000E+00
     -3.248  0.0000E+00  0.0000E+00  0.0000E+00  0.0000E+00  0.0000E+00  0.0000E+00  0.0000E+00  0.0000E+00  0.0000E+00  0.0000E+00  0.0000E+00  0.0000E+00  0.0000E+00  0.0000E+00  0.0000E+00  0.0000E+00  0.0000E+00  0.0000E+00
     -3.166  0.0000E+00  0.0000E+00  0.0000E+00  0.0000E+00  0.0000E+00  0.0000E+00  0.0000E+00  0.0000E+00  0.0000E+00  0.0000E+00  0.0000E+00  0.0000E+00  0.0000E+00  0.0000E+00  0.0000E+00  0.0000E+00  0.0000E+00  0.0000E+00
     -3.084  0.0000E+00  0.0000E+00  0.0000E+00  0.0000E+00  0.0000E+00  0.0000E+00  0.0000E+00  0.0000E+00  0.0000E+00  0.0000E+00  0.0000E+00  0.0000E+00  0.0000E+00  0.0000E+00  0.0000E+00  0.0000E+00  0.0000E+00  0.0000E+00
     -3.003  0.0000E+00  0.0000E+00  0.0000E+00  0.0000E+00  0.0000E+00  0.0000E+00  0.0000E+00  0.0000E+00  0.0000E+00  0.0000E+00  0.0000E+00  0.0000E+00  0.0000E+00  0.0000E+00  0.0000E+00  0.0000E+00  0.0000E+00  0.0000E+00
     -2.921  0.3256E-05  0.3138E-05  0.1736E-07  0.1674E-07  0.1736E-07  0.1674E-07  0.1736E-07  0.1674E-07  0.0000E+00  0.0000E+00  0.0000E+00  0.0000E+00  0.0000E+00  0.0000E+00  0.0000E+00  0.0000E+00  0.0000E+00  0.0000E+00
     -2.839  0.1344E-04  0.1295E-04  0.7167E-07  0.6912E-07  0.7167E-07  0.6912E-07  0.7167E-07  0.6912E-07  0.0000E+00  0.0000E+00  0.0000E+00  0.0000E+00  0.0000E+00  0.0000E+00  0.0000E+00  0.0000E+00  0.0000E+00  0.0000E+00
     -2.757  0.6877E-04  0.6630E-04  0.3668E-06  0.3538E-06  0.3668E-06  0.3538E-06  0.3668E-06  0.3538E-06  0.0000E+00  0.0000E+00  0.0000E+00  0.0000E+00  0.0000E+00  0.0000E+00  0.0000E+00  0.0000E+00  0.0000E+00  0.0000E+00
     -2.676  0.3483E-03  0.3360E-03  0.1858E-05  0.1793E-05  0.1858E-05  0.1793E-05  0.1858E-05  0.1793E-05  0.0000E+00  0.0000E+00  0.0000E+00  0.0000E+00  0.0000E+00  0.0000E+00  0.0000E+00  0.0000E+00  0.0000E+00  0.0000E+00
     -2.594  0.1676E-02  0.1620E-02  0.8940E-05  0.8645E-05  0.8940E-05  0.8645E-05  0.8940E-05  0.8645E-05  0.0000E+00  0.0000E+00  0.0000E+00  0.0000E+00  0.0000E+00  0.0000E+00  0.0000E+00  0.0000E+00  0.0000E+00  0.0000E+00
     -2.512  0.6440E-02  0.6280E-02  0.3435E-04  0.3351E-04  0.3435E-04  0.3351E-04  0.3435E-04  0.3351E-04  0.0000E+00  0.0000E+00  0.0000E+00  0.0000E+00  0.0000E+00  0.0000E+00  0.0000E+00  0.0000E+00  0.0000E+00  0.0000E+00
     -2.430  0.1256E-01  0.1250E-01  0.6697E-04  0.6670E-04  0.6697E-04  0.6670E-04  0.6697E-04  0.6670E-04  0.0000E+00  0.0000E+00  0.0000E+00  0.0000E+00  0.0000E+00  0.0000E+00  0.0000E+00  0.0000E+00  0.0000E+00  0.0000E+00
     -2.349  0.8482E-02  0.8640E-02  0.4548E-04  0.4634E-04  0.4548E-04  0.4634E-04  0.4548E-04  0.4634E-04  0.0000E+00  0.0000E+00  0.0000E+00  0.0000E+00  0.0000E+00  0.0000E+00  0.0000E+00  0.0000E+00  0.0000E+00  0.0000E+00
     -2.267  0.2576E-02  0.2651E-02  0.1473E-04  0.1511E-04  0.1473E-04  0.1511E-04  0.1473E-04  0.1511E-04  0.0000E+00  0.0000E+00  0.0000E+00  0.0000E+00  0.0000E+00  0.0000E+00  0.0000E+00  0.0000E+00  0.0000E+00  0.0000E+00
     -2.185  0.8835E-03  0.8899E-03  0.9811E-05  0.9668E-05  0.9811E-05  0.9668E-05  0.9811E-05  0.9668E-05  0.0000E+00  0.0000E+00  0.0000E+00  0.0000E+00  0.0000E+00  0.0000E+00  0.0000E+00  0.0000E+00  0.0000E+00  0.0000E+00
     -2.103  0.1834E-02  0.1778E-02  0.3537E-04  0.3419E-04  0.3537E-04  0.3419E-04  0.3537E-04  0.3419E-04  0.0000E+00  0.0000E+00  0.0000E+00  0.0000E+00  0.0000E+00  0.0000E+00  0.0000E+00  0.0000E+00  0.0000E+00  0.0000E+00
     -2.022  0.7946E-02  0.7695E-02  0.1601E-03  0.1551E-03  0.1601E-03  0.1551E-03  0.1601E-03  0.1551E-03  0.0000E+00  0.0000E+00  0.0000E+00  0.0000E+00  0.0000E+00  0.0000E+00  0.0000E+00  0.0000E+00  0.0000E+00  0.0000E+00
     -1.940  0.2580E-01  0.2531E-01  0.5198E-03  0.5101E-03  0.5198E-03  0.5101E-03  0.5198E-03  0.5101E-03  0.0000E+00  0.0000E+00  0.0000E+00  0.0000E+00  0.0000E+00  0.0000E+00  0.0000E+00  0.0000E+00  0.0000E+00  0.0000E+00
     -1.858  0.3560E-01  0.3574E-01  0.7173E-03  0.7205E-03  0.7173E-03  0.7205E-03  0.7173E-03  0.7205E-03  0.0000E+00  0.0000E+00  0.0000E+00  0.0000E+00  0.0000E+00  0.0000E+00  0.0000E+00  0.0000E+00  0.0000E+00  0.0000E+00
     -1.776  0.1716E-01  0.1758E-01  0.3462E-03  0.3548E-03  0.3462E-03  0.3548E-03  0.3462E-03  0.3548E-03  0.0000E+00  0.0000E+00  0.0000E+00  0.0000E+00  0.0000E+00  0.0000E+00  0.0000E+00  0.0000E+00  0.0000E+00  0.0000E+00
     -1.695  0.4461E-02  0.4599E-02  0.9171E-04  0.9449E-04  0.9171E-04  0.9449E-04  0.9171E-04  0.9449E-04  0.0000E+00  0.0000E+00  0.0000E+00  0.0000E+00  0.0000E+00  0.0000E+00  0.0000E+00  0.0000E+00  0.0000E+00  0.0000E+00
     -1.613  0.1497E-02  0.1507E-02  0.3955E-04  0.3943E-04  0.3955E-04  0.3943E-04  0.3955E-04  0.3943E-04  0.0000E+00  0.0000E+00  0.0000E+00  0.0000E+00  0.0000E+00  0.0000E+00  0.0000E+00  0.0000E+00  0.0000E+00  0.0000E+00
     -1.531  0.3136E-02  0.3041E-02  0.1094E-03  0.1060E-03  0.1094E-03  0.1060E-03  0.1094E-03  0.1060E-03  0.0000E+00  0.0000E+00  0.0000E+00  0.0000E+00  0.0000E+00  0.0000E+00  0.0000E+00  0.0000E+00  0.0000E+00  0.0000E+00
     -1.449  0.1254E-01  0.1219E-01  0.4487E-03  0.4362E-03  0.4487E-03  0.4362E-03  0.4487E-03  0.4362E-03  0.0000E+00  0.0000E+00  0.0000E+00  0.0000E+00  0.0000E+00  0.0000E+00  0.0000E+00  0.0000E+00  0.0000E+00  0.0000E+00
     -1.367  0.3151E-01  0.3115E-01  0.1127E-02  0.1115E-02  0.1127E-02  0.1115E-02  0.1127E-02  0.1115E-02  0.0000E+00  0.0000E+00  0.0000E+00  0.0000E+00  0.0000E+00  0.0000E+00  0.0000E+00  0.0000E+00  0.0000E+00  0.0000E+00
     -1.286  0.2903E-01  0.2939E-01  0.1039E-02  0.1052E-02  0.1039E-02  0.1052E-02  0.1039E-02  0.1052E-02  0.0000E+00  0.0000E+00  0.0000E+00  0.0000E+00  0.0000E+00  0.0000E+00  0.0000E+00  0.0000E+00  0.0000E+00  0.0000E+00
     -1.204  0.1037E-01  0.1066E-01  0.3719E-03  0.3825E-03  0.3719E-03  0.3825E-03  0.3719E-03  0.3825E-03  0.0000E+00  0.0000E+00  0.0000E+00  0.0000E+00  0.0000E+00  0.0000E+00  0.0000E+00  0.0000E+00  0.0000E+00  0.0000E+00
     -1.122  0.2629E-02  0.2698E-02  0.9894E-04  0.1013E-03  0.9894E-04  0.1013E-03  0.9894E-04  0.1013E-03  0.0000E+00  0.0000E+00  0.0000E+00  0.0000E+00  0.0000E+00  0.0000E+00  0.0000E+00  0.0000E+00  0.0000E+00  0.0000E+00
     -1.040  0.1926E-02  0.1892E-02  0.9353E-04  0.9149E-04  0.9353E-04  0.9149E-04  0.9353E-04  0.9149E-04  0.0000E+00  0.0000E+00  0.0000E+00  0.0000E+00  0.0000E+00  0.0000E+00  0.0000E+00  0.0000E+00  0.0000E+00  0.0000E+00
     -0.959  0.6918E-02  0.6693E-02  0.3645E-03  0.3529E-03  0.3645E-03  0.3529E-03  0.3645E-03  0.3529E-03  0.0000E+00  0.0000E+00  0.0000E+00  0.0000E+00  0.0000E+00  0.0000E+00  0.0000E+00  0.0000E+00  0.0000E+00  0.0000E+00
     -0.877  0.2534E-01  0.2475E-01  0.1335E-02  0.1305E-02  0.1335E-02  0.1305E-02  0.1335E-02  0.1305E-02  0.0000E+00  0.0000E+00  0.0000E+00  0.0000E+00  0.0000E+00  0.0000E+00  0.0000E+00  0.0000E+00  0.0000E+00  0.0000E+00
     -0.795  0.4436E-01  0.4428E-01  0.2338E-02  0.2335E-02  0.2338E-02  0.2335E-02  0.2338E-02  0.2335E-02  0.0000E+00  0.0000E+00  0.0000E+00  0.0000E+00  0.0000E+00  0.0000E+00  0.0000E+00  0.0000E+00  0.0000E+00  0.0000E+00
     -0.713  0.2672E-01  0.2726E-01  0.1408E-02  0.1438E-02  0.1408E-02  0.1438E-02  0.1408E-02  0.1438E-02  0.0000E+00  0.0000E+00  0.0000E+00  0.0000E+00  0.0000E+00  0.0000E+00  0.0000E+00  0.0000E+00  0.0000E+00  0.0000E+00
     -0.632  0.7626E-02  0.7854E-02  0.4047E-03  0.4169E-03  0.4047E-03  0.4169E-03  0.4047E-03  0.4169E-03  0.0000E+00  0.0000E+00  0.0000E+00  0.0000E+00  0.0000E+00  0.0000E+00  0.0000E+00  0.0000E+00  0.0000E+00  0.0000E+00
     -0.550  0.2406E-02  0.2431E-02  0.1415E-03  0.1424E-03  0.1415E-03  0.1424E-03  0.1415E-03  0.1424E-03  0.0000E+00  0.0000E+00  0.0000E+00  0.0000E+00  0.0000E+00  0.0000E+00  0.0000E+00  0.0000E+00  0.0000E+00  0.0000E+00
     -0.468  0.4425E-02  0.4295E-02  0.3062E-03  0.2970E-03  0.3062E-03  0.2970E-03  0.3062E-03  0.2970E-03  0.0000E+00  0.0000E+00  0.0000E+00  0.0000E+00  0.0000E+00  0.0000E+00  0.0000E+00  0.0000E+00  0.0000E+00  0.0000E+00
     -0.386  0.1820E-01  0.1766E-01  0.1283E-02  0.1245E-02  0.1283E-02  0.1245E-02  0.1283E-02  0.1245E-02  0.0000E+00  0.0000E+00  0.0000E+00  0.0000E+00  0.0000E+00  0.0000E+00  0.0000E+00  0.0000E+00  0.0000E+00  0.0000E+00
     -0.305  0.5204E-01  0.5125E-01  0.3667E-02  0.3614E-02  0.3667E-02  0.3614E-02  0.3667E-02  0.3614E-02  0.0000E+00  0.0000E+00  0.0000E+00  0.0000E+00  0.0000E+00  0.0000E+00  0.0000E+00  0.0000E+00  0.0000E+00  0.0000E+00
     -0.223  0.5794E-01  0.5843E-01  0.4083E-02  0.4120E-02  0.4083E-02  0.4120E-02  0.4083E-02  0.4120E-02  0.0000E+00  0.0000E+00  0.0000E+00  0.0000E+00  0.0000E+00  0.0000E+00  0.0000E+00  0.0000E+00  0.0000E+00  0.0000E+00
     -0.141  0.2352E-01  0.2414E-01  0.1658E-02  0.1703E-02  0.1658E-02  0.1703E-02  0.1658E-02  0.1703E-02  0.0000E+00  0.0000E+00  0.0000E+00  0.0000E+00  0.0000E+00  0.0000E+00  0.0000E+00  0.0000E+00  0.0000E+00  0.0000E+00
     -0.059  0.5740E-02  0.5918E-02  0.4076E-03  0.4202E-03  0.4076E-03  0.4202E-03  0.4076E-03  0.4202E-03  0.0000E+00  0.0000E+00  0.0000E+00  0.0000E+00  0.0000E+00  0.0000E+00  0.0000E+00  0.0000E+00  0.0000E+00  0.0000E+00
      0.022  0.1956E-02  0.1967E-02  0.1535E-03  0.1538E-03  0.1535E-03  0.1538E-03  0.1535E-03  0.1538E-03  0.0000E+00  0.0000E+00  0.0000E+00  0.0000E+00  0.0000E+00  0.0000E+00  0.0000E+00  0.0000E+00  0.0000E+00  0.0000E+00
      0.104  0.3961E-02  0.4061E-02  0.3545E-03  0.3593E-03  0.3545E-03  0.3593E-03  0.3545E-03  0.3593E-03  0.0000E+00  0.0000E+00  0.0000E+00  0.0000E+00  0.0000E+00  0.0000E+00  0.0000E+00  0.0000E+00  0.0000E+00  0.0000E+00
      0.186  0.1524E-01  0.1487E-01  0.1364E-02  0.1332E-02  0.1364E-02  0.1332E-02  0.1364E-02  0.1332E-02  0.0000E+00  0.0000E+00  0.0000E+00  0.0000E+00  0.0000E+00  0.0000E+00  0.0000E+00  0.0000E+00  0.0000E+00  0.0000E+00
      0.268  0.2985E-01  0.2971E-01  0.2672E-02  0.2661E-02  0.2672E-02  0.2661E-02  0.2672E-02  0.2661E-02  0.0000E+00  0.0000E+00  0.0000E+00  0.0000E+00  0.0000E+00  0.0000E+00  0.0000E+00  0.0000E+00  0.0000E+00  0.0000E+00
      0.349  0.2025E-01  0.2062E-01  0.1813E-02  0.1847E-02  0.1813E-02  0.1847E-02  0.1813E-02  0.1847E-02  0.0000E+00  0.0000E+00  0.0000E+00  0.0000E+00  0.0000E+00  0.0000E+00  0.0000E+00  0.0000E+00  0.0000E+00  0.0000E+00
      0.431  0.6139E-02  0.6316E-02  0.5524E-03  0.5685E-03  0.5524E-03  0.5685E-03  0.5524E-03  0.5685E-03  0.0000E+00  0.0000E+00  0.0000E+00  0.0000E+00  0.0000E+00  0.0000E+00  0.0000E+00  0.0000E+00  0.0000E+00  0.0000E+00
      0.513  0.1975E-02  0.1995E-02  0.1916E-03  0.1930E-03  0.1916E-03  0.1930E-03  0.1916E-03  0.1930E-03  0.0000E+00  0.0000E+00  0.0000E+00  0.0000E+00  0.0000E+00  0.0000E+00  0.0000E+00  0.0000E+00  0.0000E+00  0.0000E+00