   4   4   1   0
  0.2018999E+02  0.4322470E-09  0.4322470E-09  0.4322470E-09  0.5000000E-15
  1.000000000000000E-004
  CAR 
 unknown system                          
     16.04596769     -4.70960191  301      6.01988332      1.00000000
     -4.710  0.0000E+00  0.0000E+00  0.0000E+00  0.0000E+00
     -4.640  0.0000E+00  0.0000E+00  0.0000E+00  0.0000E+00
     -4.571  0.0000E+00  0.0000E+00  0.0000E+00  0.0000E+00
     -4.502  0.0000E+00  0.0000E+00  0.0000E+00  0.0000E+00
     -4.433  0.0000E+00  0.0000E+00  0.0000E+00  0.0000E+00
     -4.364  0.0000E+00  0.0000E+00  0.0000E+00  0.0000E+00
     -4.294  0.0000E+00  0.0000E+00  0.0000E+00  0.0000E+00
     -4.225  0.6762E-06  0.6556E-06  0.4678E-07  0.4536E-07
     -4.156  0.8363E-05  0.8108E-05  0.6254E-06  0.6063E-06
     -4.087  0.5202E-04  0.5043E-04  0.4224E-05  0.4095E-05
     -4.018  0.1882E-03  0.1824E-03  0.1724E-04  0.1672E-04
     -3.949  0.7907E-03  0.7669E-03  0.7195E-04  0.6977E-04
     -3.879  0.2999E-02  0.2911E-02  0.2794E-03  0.2712E-03
     -3.810  0.1067E-01  0.1039E-01  0.1018E-02  0.9902E-03
     -3.741  0.3064E-01  0.3003E-01  0.3138E-02  0.3068E-02
     -3.672  0.6234E-01  0.6161E-01  0.7451E-02  0.7330E-02
     -3.603  0.9288E-01  0.9222E-01  0.1388E-01  0.1371E-01
     -3.533  0.1249E+00  0.1242E+00  0.2252E-01  0.2230E-01
     -3.464  0.1457E+00  0.1455E+00  0.3260E-01  0.3237E-01
     -3.395  0.1513E+00  0.1509E+00  0.4306E-01  0.4281E-01
     -3.326  0.1820E+00  0.1812E+00  0.5566E-01  0.5535E-01
     -3.257  0.2048E+00  0.2046E+00  0.6983E-01  0.6951E-01
     -3.188  0.2070E+00  0.2069E+00  0.8416E-01  0.8383E-01
     -3.118  0.2199E+00  0.2197E+00  0.9939E-01  0.9904E-01
     -3.049  0.2179E+00  0.2181E+00  0.1145E+00  0.1141E+00
     -2.980  0.2342E+00  0.2332E+00  0.1307E+00  0.1303E+00
     -2.911  0.2806E+00  0.2799E+00  0.1501E+00  0.1497E+00
     -2.842  0.2907E+00  0.2907E+00  0.1702E+00  0.1698E+00
     -2.772  0.2836E+00  0.2840E+00  0.1899E+00  0.1894E+00
     -2.703  0.2524E+00  0.2531E+00  0.2073E+00  0.2070E+00
     -2.634  0.2520E+00  0.2510E+00  0.2248E+00  0.2243E+00
     -2.565  0.3221E+00  0.3204E+00  0.2471E+00  0.2465E+00
     -2.496  0.3605E+00  0.3605E+00  0.2720E+00  0.2715E+00
     -2.426  0.3516E+00  0.3516E+00  0.2964E+00  0.2958E+00
     -2.357  0.3439E+00  0.3446E+00  0.3202E+00  0.3197E+00
     -2.288  0.2968E+00  0.2976E+00  0.3407E+00  0.3403E+00
     -2.219  0.3140E+00  0.3127E+00  0.3625E+00  0.3619E+00
     -2.150  0.3728E+00  0.3719E+00  0.3883E+00  0.3877E+00
     -2.081  0.3802E+00  0.3805E+00  0.4146E+00  0.4141E+00
     -2.011  0.3688E+00  0.3691E+00  0.4402E+00  0.4396E+00
     -1.942  0.3679E+00  0.3678E+00  0.4657E+00  0.4651E+00
     -1.873  0.4063E+00  0.4049E+00  0.4938E+00  0.4931E+00
     -1.804  0.4551E+00  0.4550E+00  0.5253E+00  0.5246E+00
     -1.735  0.4209E+00  0.4219E+00  0.5544E+00  0.5538E+00
     -1.665  0.4002E+00  0.4004E+00  0.5821E+00  0.5815E+00
     -1.596  0.3653E+00  0.3667E+00  0.6074E+00  0.6069E+00
     -1.527  0.3290E+00  0.3286E+00  0.6302E+00  0.6296E+00
     -1.458  0.4133E+00  0.4106E+00  0.6588E+00  0.6581E+00
     -1.389  0.4989E+00  0.4980E+00  0.6933E+00  0.6926E+00
     -1.320  0.5175E+00  0.5172E+00  0.7292E+00  0.7283E+00
     -1.250  0.5278E+00  0.5282E+00  0.7657E+00  0.7649E+00
     -1.181  0.4690E+00  0.4707E+00  0.7982E+00  0.7975E+00
     -1.112  0.4202E+00  0.4206E+00  0.8272E+00  0.8266E+00
     -1.043  0.4172E+00  0.4170E+00  0.8561E+00  0.8555E+00
     -0.974  0.4353E+00  0.4346E+00  0.8863E+00  0.8856E+00
     -0.904  0.4762E+00  0.4754E+00  0.9192E+00  0.9185E+00
     -0.835  0.4698E+00  0.4706E+00  0.9518E+00  0.9511E+00
     -0.766  0.4754E+00  0.4738E+00  0.9846E+00  0.9838E+00
     -0.697  0.5683E+00  0.5668E+00  0.1024E+01  0.1023E+01
     -0.628  0.5779E+00  0.5785E+00  0.1064E+01  0.1063E+01
     -0.558  0.5527E+00  0.5534E+00  0.1102E+01  0.1101E+01
     -0.489  0.4870E+00  0.4890E+00  0.1136E+01  0.1135E+01
     -0.420  0.4433E+00  0.4426E+00  0.1167E+01  0.1166E+01
     -0.351  0.5413E+00  0.5384E+00  0.1204E+01  0.1203E+01
     -0.282  0.6156E+00  0.6155E+00  0.1247E+01  0.1246E+01
     -0.213  0.5768E+00  0.5781E+00  0.1287E+01  0.1286E+01
     -0.143  0.5072E+00  0.5090E+00  0.1322E+01  0.1321E+01
     -0.074  0.4422E+00  0.4425E+00  0.1352E+01  0.1352E+01
     -0.005  0.5040E+00  0.5016E+00  0.1387E+01  0.1386E+01
      0.064  0.5835E+00  0.5826E+00  0.1428E+01  0.1427E+01
      0.133  0.5984E+00  0.5983E+00  0.1469E+01  0.1468E+01
      0.203  0.6078E+00  0.6080E+00  0.1511E+01  0.1510E+01
      0.272  0.6045E+00  0.6045E+00  0.1553E+01  0.1552E+01
      0.341  0.6674E+00  0.6649E+00  0.1599E+01  0.1598E+01
      0.410  0.7478E+00  0.7482E+00  0.1651E+01  0.1650E+01
      0.479  0.6187E+00  0.6227E+00  0.1694E+01  0.1693E+01
      0.548  0.4925E+00  0.4938E+00  0.1728E+01  0.1727E+01
      0.618  0.4589E+00  0.4596E+00  0.1760E+01  0.1759E+01
      0.687  0.4544E+00  0.4533E+00  0.1791E+01  0.1790E+01
      0.756  0.5717E+00  0.5682E+00  0.1831E+01  0.1830E+01
      0.825  0.6975E+00  0.6957E+00  0.1879E+01  0.1878E+01
      0.894  0.7500E+00  0.7495E+00  0.1931E+01  0.1930E+01
      0.964  0.7024E+00  0.7047E+00  0.1980E+01  0.1979E+01
      1.033  0.6261E+00  0.6262E+00  0.2023E+01  0.2022E+01
      1.102  0.6726E+00  0.6714E+00  0.2070E+01  0.2068E+01
      1.171  0.6899E+00  0.6903E+00  0.2117E+01  0.2116E+01
      1.240  0.6721E+00  0.6721E+00  0.2164E+01  0.2163E+01
      1.310  0.6693E+00  0.6701E+00  0.2210E+01  0.2209E+01
      1.379  0.5855E+00  0.5876E+00  0.2251E+01  0.2250E+01
      1.448  0.5814E+00  0.5795E+00  0.2291E+01  0.2290E+01
      1.517  0.6863E+00  0.6845E+00  0.2339E+01  0.2337E+01
      1.586  0.7321E+00  0.7316E+00  0.2389E+01  0.2388E+01
      1.655  0.7246E+00  0.7258E+00  0.2439E+01  0.2438E+01
      1.725  0.6375E+00  0.6392E+00  0.2484E+01  0.2483E+01
      1.794  0.6376E+00  0.6360E+00  0.2528E+01  0.2527E+01
      1.863  0.7123E+00  0.7115E+00  0.2577E+01  0.2576E+01
      1.932  0.7136E+00  0.7136E+00  0.2626E+01  0.2625E+01
      2.001  0.7568E+00  0.7556E+00  0.2679E+01  0.2678E+01
      2.071  0.7473E+00  0.7492E+00  0.2731E+01  0.2729E+01
      2.140  0.6935E+00  0.6933E+00  0.2779E+01  0.2777E+01
      2.209  0.7538E+00  0.7523E+00  0.2831E+01  0.2830E+01
      2.278  0.7854E+00  0.7856E+00  0.2885E+01  0.2884E+01
      2.347  0.7506E+00  0.7516E+00  0.2937E+01  0.2936E+01
      2.416  0.7073E+00  0.7083E+00  0.2986E+01  0.2985E+01
      2.486  0.6751E+00  0.6749E+00  0.3033E+01  0.3032E+01
      2.555  0.7302E+00  0.7286E+00  0.3083E+01  0.3082E+01
      2.624  0.7683E+00  0.7686E+00  0.3136E+01  0.3135E+01
      2.693  0.6935E+00  0.6963E+00  0.3184E+01  0.3184E+01
      2.762  0.5610E+00  0.5631E+00  0.3223E+01  0.3223E+01
      2.832  0.5718E+00  0.5691E+00  0.3263E+01  0.3262E+01
      2.901  0.7737E+00  0.7689E+00  0.3316E+01  0.3315E+01
      2.970  0.9331E+00  0.9316E+00  0.3381E+01  0.3380E+01
      3.039  0.9397E+00  0.9403E+00  0.3446E+01  0.3445E+01
      3.108  0.9034E+00  0.9045E+00  0.3509E+01  0.3507E+01
      3.178  0.8431E+00  0.8440E+00  0.3567E+01  0.3566E+01
      3.247  0.8620E+00  0.8610E+00  0.3627E+01  0.3625E+01
      3.316  0.8604E+00  0.8618E+00  0.3686E+01  0.3685E+01
      3.385  0.7442E+00  0.7471E+00  0.3738E+01  0.3737E+01
      3.454  0.6340E+00  0.6355E+00  0.3782E+01  0.3781E+01
      3.523  0.6391E+00  0.6376E+00  0.3826E+01  0.3825E+01
      3.593  0.7790E+00  0.7754E+00  0.3880E+01  0.3879E+01
      3.662  0.9262E+00  0.9245E+00  0.3944E+01  0.3943E+01
      3.731  0.9265E+00  0.9277E+00  0.4008E+01  0.4007E+01
      3.800  0.8762E+00  0.8768E+00  0.4069E+01  0.4068E+01
      3.869  0.8599E+00  0.8603E+00  0.4128E+01  0.4127E+01
      3.939  0.8549E+00  0.8547E+00  0.4188E+01  0.4186E+01
      4.008  0.8900E+00  0.8893E+00  0.4249E+01  0.4248E+01
      4.077  0.8989E+00  0.8993E+00  0.4311E+01  0.4310E+01
      4.146  0.8492E+00  0.8504E+00  0.4370E+01  0.4369E+01
      4.215  0.7524E+00  0.7552E+00  0.4422E+01  0.4421E+01
      4.284  0.6161E+00  0.6181E+00  0.4465E+01  0.4464E+01
      4.354  0.6443E+00  0.6415E+00  0.4510E+01  0.4509E+01
      4.423  0.8235E+00  0.8193E+00  0.4567E+01  0.4565E+01
      4.492  0.9409E+00  0.9395E+00  0.4632E+01  0.4630E+01
      4.561  0.9231E+00  0.9238E+00  0.4696E+01  0.4694E+01
      4.630  0.9125E+00  0.9117E+00  0.4759E+01  0.4757E+01
      4.700  0.9797E+00  0.9791E+00  0.4827E+01  0.4825E+01
      4.769  0.9441E+00  0.9463E+00  0.4892E+01  0.4891E+01
      4.838  0.8363E+00  0.8376E+00  0.4950E+01  0.4949E+01
      4.907  0.7603E+00  0.7624E+00  0.5003E+01  0.5001E+01
      4.976  0.6754E+00  0.6760E+00  0.5049E+01  0.5048E+01
      5.046  0.7639E+00  0.7605E+00  0.5102E+01  0.5101E+01
      5.115  0.9290E+00  0.9265E+00  0.5167E+01  0.5165E+01
      5.184  0.9429E+00  0.9441E+00  0.5232E+01  0.5230E+01
      5.253  0.8318E+00  0.8344E+00  0.5289E+01  0.5288E+01
      5.322  0.7673E+00  0.7670E+00  0.5342E+01  0.5341E+01
      5.391  0.8599E+00  0.8573E+00  0.5402E+01  0.5401E+01
      5.461  0.9300E+00  0.9286E+00  0.5466E+01  0.5465E+01
      5.530  0.9629E+00  0.9616E+00  0.5533E+01  0.5532E+01
      5.599  0.9886E+00  0.9887E+00  0.5602E+01  0.5600E+01
      5.668  0.9932E+00  0.9932E+00  0.5670E+01  0.5669E+01
      5.737  0.1046E+01  0.1045E+01  0.5743E+01  0.5741E+01
      5.807  0.1081E+01  0.1082E+01  0.5818E+01  0.5816E+01
      5.876  0.9796E+00  0.9831E+00  0.5885E+01  0.5884E+01
      5.945  0.8145E+00  0.8165E+00  0.5942E+01  0.5941E+01
      6.014  0.7813E+00  0.7797E+00  0.5996E+01  0.5995E+01
      6.083  0.8692E+00  0.8675E+00  0.6056E+01  0.6055E+01
      6.152  0.8884E+00  0.8900E+00  0.6118E+01  0.6116E+01
      6.222  0.7911E+00  0.7929E+00  0.6172E+01  0.6171E+01
      6.291  0.7562E+00  0.7559E+00  0.6225E+01  0.6224E+01
      6.360  0.8331E+00  0.8305E+00  0.6282E+01  0.6281E+01
      6.429  0.1013E+01  0.1009E+01  0.6353E+01  0.6351E+01
      6.498  0.1125E+01  0.1124E+01  0.6430E+01  0.6429E+01
      6.568  0.1114E+01  0.1114E+01  0.6508E+01  0.6506E+01
      6.637  0.1094E+01  0.1095E+01  0.6583E+01  0.6582E+01
      6.706  0.1018E+01  0.1018E+01  0.6654E+01  0.6652E+01
      6.775  0.1030E+01  0.1029E+01  0.6725E+01  0.6723E+01
      6.844  0.1023E+01  0.1025E+01  0.6796E+01  0.6794E+01
      6.914  0.9074E+00  0.9093E+00  0.6859E+01  0.6857E+01
      6.983  0.8642E+00  0.8640E+00  0.6919E+01  0.6917E+01
      7.052  0.8576E+00  0.8577E+00  0.6978E+01  0.6977E+01
      7.121  0.8957E+00  0.8947E+00  0.7040E+01  0.7038E+01
      7.190  0.9560E+00  0.9553E+00  0.7106E+01  0.7105E+01
      7.259  0.1048E+01  0.1045E+01  0.7179E+01  0.7177E+01
      7.329  0.1197E+01  0.1194E+01  0.7262E+01  0.7260E+01
      7.398  0.1182E+01  0.1184E+01  0.7343E+01  0.7342E+01
      7.467  0.1058E+01  0.1060E+01  0.7417E+01  0.7415E+01
      7.536  0.1059E+01  0.1058E+01  0.7490E+01  0.7488E+01
      7.605  0.1079E+01  0.1079E+01  0.7565E+01  0.7563E+01
      7.675  0.9749E+00  0.9782E+00  0.7632E+01  0.7631E+01
      7.744  0.7717E+00  0.7758E+00  0.7686E+01  0.7684E+01
      7.813  0.7293E+00  0.7285E+00  0.7736E+01  0.7735E+01
      7.882  0.8528E+00  0.8508E+00  0.7795E+01  0.7794E+01
      7.951  0.9515E+00  0.9488E+00  0.7861E+01  0.7859E+01
      8.020  0.1061E+01  0.1059E+01  0.7934E+01  0.7933E+01
      8.090  0.1107E+01  0.1105E+01  0.8011E+01  0.8009E+01
      8.159  0.1209E+01  0.1205E+01  0.8095E+01  0.8093E+01
      8.228  0.1339E+01  0.1337E+01  0.8187E+01  0.8185E+01
      8.297  0.1362E+01  0.1363E+01  0.8282E+01  0.8280E+01
      8.366  0.1284E+01  0.1288E+01  0.8371E+01  0.8369E+01
      8.436  0.1081E+01  0.1085E+01  0.8445E+01  0.8444E+01
      8.505  0.9744E+00  0.9753E+00  0.8513E+01  0.8511E+01
      8.574  0.9327E+00  0.9349E+00  0.8578E+01  0.8576E+01
      8.643  0.8284E+00  0.8297E+00  0.8635E+01  0.8634E+01
      8.712  0.8796E+00  0.8754E+00  0.8696E+01  0.8694E+01
      8.782  0.1078E+01  0.1073E+01  0.8770E+01  0.8769E+01
      8.851  0.1201E+01  0.1200E+01  0.8854E+01  0.8852E+01
      8.920  0.1137E+01  0.1140E+01  0.8932E+01  0.8931E+01
      8.989  0.1056E+01  0.1055E+01  0.9005E+01  0.9004E+01
      9.058  0.1141E+01  0.1140E+01  0.9084E+01  0.9082E+01
      9.127  0.1135E+01  0.1137E+01  0.9163E+01  0.9161E+01
      9.197  0.1084E+01  0.1084E+01  0.9238E+01  0.9236E+01
      9.266  0.1126E+01  0.1125E+01  0.9316E+01  0.9314E+01
      9.335  0.1122E+01  0.1121E+01  0.9394E+01  0.9392E+01
      9.404  0.1118E+01  0.1117E+01  0.9471E+01  0.9469E+01
      9.473  0.1067E+01  0.1068E+01  0.9545E+01  0.9543E+01
      9.543  0.1069E+01  0.1069E+01  0.9619E+01  0.9617E+01
      9.612  0.1100E+01  0.1099E+01  0.9695E+01  0.9693E+01
      9.681  0.1226E+01  0.1221E+01  0.9780E+01  0.9778E+01
      9.750  0.1334E+01  0.1334E+01  0.9872E+01  0.9870E+01
      9.819  0.1266E+01  0.1270E+01  0.9960E+01  0.9958E+01
      9.888  0.1137E+01  0.1140E+01  0.1004E+02  0.1004E+02
      9.958  0.1116E+01  0.1116E+01  0.1012E+02  0.1011E+02
     10.027  0.1245E+01  0.1241E+01  0.1020E+02  0.1020E+02
     10.096  0.1327E+01  0.1327E+01  0.1029E+02  0.1029E+02
     10.165  0.1234E+01  0.1237E+01  0.1038E+02  0.1038E+02
     10.234  0.1113E+01  0.1117E+01  0.1046E+02  0.1045E+02
     10.304  0.9647E+00  0.9683E+00  0.1052E+02  0.1052E+02
     10.373  0.9579E+00  0.9545E+00  0.1059E+02  0.1059E+02
     10.442  0.1128E+01  0.1126E+01  0.1067E+02  0.1067E+02
     10.511  0.1054E+01  0.1059E+01  0.1074E+02  0.1074E+02
     10.580  0.8794E+00  0.8811E+00  0.1080E+02  0.1080E+02
     10.650  0.8818E+00  0.8805E+00  0.1086E+02  0.1086E+02
     10.719  0.8714E+00  0.8707E+00  0.1092E+02  0.1092E+02
     10.788  0.8587E+00  0.8566E+00  0.1098E+02  0.1098E+02
     10.857  0.9116E+00  0.9128E+00  0.1105E+02  0.1104E+02
     10.926  0.9558E+00  0.9583E+00  0.1111E+02  0.1111E+02
     10.995  0.9227E+00  0.9233E+00  0.1118E+02  0.1117E+02
     11.065  0.8622E+00  0.8631E+00  0.1124E+02  0.1123E+02
     11.134  0.6872E+00  0.6935E+00  0.1128E+02  0.1128E+02
     11.203  0.4320E+00  0.4367E+00  0.1131E+02  0.1131E+02
     11.272  0.3471E+00  0.3470E+00  0.1134E+02  0.1134E+02
     11.341  0.3706E+00  0.3695E+00  0.1136E+02  0.1136E+02
     11.411  0.3979E+00  0.3958E+00  0.1139E+02  0.1139E+02
     11.480  0.4564E+00  0.4515E+00  0.1142E+02  0.1142E+02
     11.549  0.4983E+00  0.4947E+00  0.1146E+02  0.1146E+02
     11.618  0.4345E+00  0.4395E+00  0.1149E+02  0.1149E+02
     11.687  0.3243E+00  0.3307E+00  0.1151E+02  0.1151E+02
     11.756  0.2627E+00  0.2657E+00  0.1153E+02  0.1153E+02
     11.826  0.3008E+00  0.3028E+00  0.1155E+02  0.1155E+02
     11.895  0.3838E+00  0.3873E+00  0.1157E+02  0.1157E+02
     11.964  0.3808E+00  0.3848E+00  0.1160E+02  0.1160E+02
     12.033  0.3198E+00  0.3228E+00  0.1162E+02  0.1162E+02
     12.102  0.3574E+00  0.3523E+00  0.1165E+02  0.1165E+02
     12.172  0.3437E+00  0.3371E+00  0.1167E+02  0.1167E+02
     12.241  0.2448E+00  0.2401E+00  0.1169E+02  0.1169E+02
     12.310  0.2066E+00  0.2025E+00  0.1170E+02  0.1170E+02
     12.379  0.2269E+00  0.2291E+00  0.1172E+02  0.1172E+02
     12.448  0.2290E+00  0.2335E+00  0.1173E+02  0.1173E+02
     12.518  0.2115E+00  0.2163E+00  0.1175E+02  0.1175E+02
     12.587  0.2013E+00  0.2114E+00  0.1176E+02  0.1176E+02
     12.656  0.1863E+00  0.1993E+00  0.1178E+02  0.1178E+02
     12.725  0.1735E+00  0.1693E+00  0.1179E+02  0.1179E+02
     12.794  0.1535E+00  0.1406E+00  0.1180E+02  0.1180E+02
     12.863  0.1854E+00  0.1780E+00  0.1181E+02  0.1181E+02
     12.933  0.2275E+00  0.2251E+00  0.1183E+02  0.1183E+02
     13.002  0.2254E+00  0.2252E+00  0.1184E+02  0.1184E+02
     13.071  0.1714E+00  0.1730E+00  0.1185E+02  0.1185E+02
     13.140  0.8823E-01  0.8952E-01  0.1186E+02  0.1186E+02
     13.209  0.7013E-01  0.6849E-01  0.1187E+02  0.1187E+02
     13.279  0.1346E+00  0.1290E+00  0.1187E+02  0.1187E+02
     13.348  0.2207E+00  0.2140E+00  0.1189E+02  0.1189E+02
     13.417  0.2133E+00  0.2159E+00  0.1190E+02  0.1190E+02
     13.486  0.1138E+00  0.1216E+00  0.1191E+02  0.1191E+02
     13.555  0.4262E-01  0.4634E-01  0.1192E+02  0.1192E+02
     13.624  0.2966E-01  0.3025E-01  0.1192E+02  0.1192E+02
     13.694  0.6392E-01  0.6276E-01  0.1192E+02  0.1192E+02
     13.763  0.1315E+00  0.1300E+00  0.1193E+02  0.1193E+02
     13.832  0.1571E+00  0.1576E+00  0.1194E+02  0.1194E+02
     13.901  0.1004E+00  0.1022E+00  0.1195E+02  0.1195E+02
     13.970  0.4353E-01  0.4438E-01  0.1195E+02  0.1195E+02
     14.040  0.3282E-01  0.3253E-01  0.1195E+02  0.1195E+02
     14.109  0.6623E-01  0.6505E-01  0.1196E+02  0.1196E+02
     14.178  0.1050E+00  0.1048E+00  0.1197E+02  0.1197E+02
     14.247  0.7694E-01  0.7818E-01  0.1197E+02  0.1197E+02
     14.316  0.2980E-01  0.3051E-01  0.1197E+02  0.1197E+02
     14.386  0.9175E-02  0.8963E-02  0.1197E+02  0.1197E+02
     14.455  0.5008E-02  0.3209E-02  0.1197E+02  0.1197E+02
     14.524  0.1085E-01  0.4230E-02  0.1198E+02  0.1197E+02
     14.593  0.3030E-01  0.1305E-01  0.1198E+02  0.1198E+02
     14.662  0.5197E-01  0.3560E-01  0.1198E+02  0.1198E+02
     14.731  0.4041E-01  0.5301E-01  0.1198E+02  0.1198E+02
     14.801  0.1795E-01  0.3651E-01  0.1199E+02  0.1198E+02
     14.870  0.1270E-01  0.1943E-01  0.1199E+02  0.1199E+02
     14.939  0.2686E-01  0.2496E-01  0.1199E+02  0.1199E+02
     15.008  0.5310E-01  0.4502E-01  0.1199E+02  0.1199E+02
     15.077  0.5816E-01  0.5455E-01  0.1200E+02  0.1199E+02
     15.147  0.3854E-01  0.4638E-01  0.1200E+02  0.1200E+02
     15.216  0.1700E-01  0.2404E-01  0.1200E+02  0.1200E+02
     15.285  0.5343E-02  0.7971E-02  0.1200E+02  0.1200E+02
     15.354  0.1432E-02  0.2168E-02  0.1200E+02  0.1200E+02
     15.423  0.3081E-03  0.4977E-03  0.1200E+02  0.1200E+02
     15.492  0.6385E-04  0.1255E-03  0.1200E+02  0.1200E+02
     15.562  0.0000E+00  0.0000E+00  0.1200E+02  0.1200E+02
     15.631  0.0000E+00  0.0000E+00  0.1200E+02  0.1200E+02
     15.700  0.0000E+00  0.0000E+00  0.1200E+02  0.1200E+02
     15.769  0.0000E+00  0.0000E+00  0.1200E+02  0.1200E+02
     15.838  0.0000E+00  0.0000E+00  0.1200E+02  0.1200E+02
     15.908  0.0000E+00  0.0000E+00  0.1200E+02  0.1200E+02
     15.977  0.0000E+00  0.0000E+00  0.1200E+02  0.1200E+02
     16.046  0.0000E+00  0.0000E+00  0.1200E+02  0.1200E+02
     16.04596769     -4.70960191  301      6.01988332      1.00000000
     -4.710  0.0000E+00  0.0000E+00  0.0000E+00  0.0000E+00  0.0000E+00  0.0000E+00  0.0000E+00  0.0000E+00  0.0000E+00  0.0000E+00  0.0000E+00  0.0000E+00  0.0000E+00  0.0000E+00  0.0000E+00  0.0000E+00  0.0000E+00  0.0000E+00
     -4.640  0.0000E+00  0.0000E+00  0.0000E+00  0.0000E+00  0.0000E+00  0.0000E+00  0.0000E+00  0.0000E+00  0.0000E+00  0.0000E+00  0.0000E+00  0.0000E+00  0.0000E+00  0.0000E+00  0.0000E+00  0.0000E+00  0.0000E+00  0.0000E+00
     -4.571  0.0000E+00  0.0000E+00  0.0000E+00  0.0000E+00  0.0000E+00  0.0000E+00  0.0000E+00  0.0000E+00  0.0000E+00  0.0000E+00  0.0000E+00  0.0000E+00  0.0000E+00  0.0000E+00  0.0000E+00  0.0000E+00  0.0000E+00  0.0000E+00
     -4.502  0.0000E+00  0.0000E+00  0.0000E+00  0.0000E+00  0.0000E+00  0.0000E+00  0.0000E+00  0.0000E+00  0.0000E+00  0.0000E+00  0.0000E+00  0.0000E+00  0.0000E+00  0.0000E+00  0.0000E+00  0.0000E+00  0.0000E+00  0.0000E+00
     -4.433  0.0000E+00  0.0000E+00  0.0000E+00  0.0000E+00  0.0000E+00  0.0000E+00  0.0000E+00  0.0000E+00  0.0000E+00  0.0000E+00  0.0000E+00  0.0000E+00  0.0000E+00  0.0000E+00  0.0000E+00  0.0000E+00  0.0000E+00  0.0000E+00
     -4.364  0.0000E+00  0.0000E+00  0.0000E+00  0.0000E+00  0.0000E+00  0.0000E+00  0.0000E+00  0.0000E+00  0.0000E+00  0.0000E+00  0.0000E+00  0.0000E+00  0.0000E+00  0.0000E+00  0.0000E+00  0.0000E+00  0.0000E+00  0.0000E+00
     -4.294  0.0000E+00  0.0000E+00  0.0000E+00  0.0000E+00  0.0000E+00  0.0000E+00  0.0000E+00  0.0000E+00  0.0000E+00  0.0000E+00  0.0000E+00  0.0000E+00  0.0000E+00  0.0000E+00  0.0000E+00  0.0000E+00  0.0000E+00  0.0000E+00
     -4.225  0.4090E-07  0.3961E-07  0.9703E-22  0.5347E-21  0.9703E-22  0.5347E-21  0.9703E-22  0.5347E-21  0.0000E+00  0.0000E+00  0.0000E+00  0.0000E+00  0.0000E+00  0.0000E+00  0.0000E+00  0.0000E+00  0.0000E+00  0.0000E+00
     -4.156  0.5047E-06  0.4888E-06  0.4282E-09  0.4150E-09  0.4282E-09  0.4150E-09  0.4282E-09  0.4150E-09  0.0000E+00  0.0000E+00  0.0000E+00  0.0000E+00  0.0000E+00  0.0000E+00  0.0000E+00  0.0000E+00  0.0000E+00  0.0000E+00
     -4.087  0.3132E-05  0.3034E-05  0.4999E-08  0.4844E-08  0.4999E-08  0.4844E-08  0.4999E-08  0.4844E-08  0.0000E+00  0.0000E+00  0.0000E+00  0.0000E+00  0.0000E+00  0.0000E+00  0.0000E+00  0.0000E+00  0.0000E+00  0.0000E+00
     -4.018  0.1133E-04  0.1098E-04  0.1784E-07  0.1729E-07  0.1784E-07  0.1729E-07  0.1784E-07  0.1729E-07  0.0000E+00  0.0000E+00  0.0000E+00  0.0000E+00  0.0000E+00  0.0000E+00  0.0000E+00  0.0000E+00  0.0000E+00  0.0000E+00
     -3.949  0.4758E-04  0.4610E-04  0.8801E-07  0.8530E-07  0.8801E-07  0.8530E-07  0.8801E-07  0.8530E-07  0.0000E+00  0.0000E+00  0.0000E+00  0.0000E+00  0.0000E+00  0.0000E+00  0.0000E+00  0.0000E+00  0.0000E+00  0.0000E+00
     -3.879  0.1805E-03  0.1750E-03  0.3271E-06  0.3172E-06  0.3271E-06  0.3172E-06  0.3271E-06  0.3172E-06  0.0000E+00  0.0000E+00  0.0000E+00  0.0000E+00  0.0000E+00  0.0000E+00  0.0000E+00  0.0000E+00  0.0000E+00  0.0000E+00
     -3.810  0.6421E-03  0.6246E-03  0.1252E-05  0.1216E-05  0.1252E-05  0.1216E-05  0.1252E-05  0.1216E-05  0.0000E+00  0.0000E+00  0.0000E+00  0.0000E+00  0.0000E+00  0.0000E+00  0.0000E+00  0.0000E+00  0.0000E+00  0.0000E+00
     -3.741  0.1842E-02  0.1804E-02  0.4151E-05  0.4049E-05  0.4151E-05  0.4049E-05  0.4151E-05  0.4049E-05  0.0000E+00  0.0000E+00  0.0000E+00  0.0000E+00  0.0000E+00  0.0000E+00  0.0000E+00  0.0000E+00  0.0000E+00  0.0000E+00
     -3.672  0.3741E-02  0.3693E-02  0.1085E-04  0.1064E-04  0.1085E-04  0.1064E-04  0.1085E-04  0.1064E-04  0.0000E+00  0.0000E+00  0.0000E+00  0.0000E+00  0.0000E+00  0.0000E+00  0.0000E+00  0.0000E+00  0.0000E+00  0.0000E+00
     -3.603  0.5556E-02  0.5511E-02  0.2247E-04  0.2213E-04  0.2247E-04  0.2213E-04  0.2247E-04  0.2213E-04  0.0000E+00  0.0000E+00  0.0000E+00  0.0000E+00  0.0000E+00  0.0000E+00  0.0000E+00  0.0000E+00  0.0000E+00  0.0000E+00
     -3.533  0.7443E-02  0.7393E-02  0.4048E-04  0.4001E-04  0.4048E-04  0.4001E-04  0.4048E-04  0.4001E-04  0.0000E+00  0.0000E+00  0.0000E+00  0.0000E+00  0.0000E+00  0.0000E+00  0.0000E+00  0.0000E+00  0.0000E+00  0.0000E+00
     -3.464  0.8650E-02  0.8634E-02  0.5798E-04  0.5763E-04  0.5798E-04  0.5763E-04  0.5798E-04  0.5763E-04  0.0000E+00  0.0000E+00  0.0000E+00  0.0000E+00  0.0000E+00  0.0000E+00  0.0000E+00  0.0000E+00  0.0000E+00  0.0000E+00
     -3.395  0.8939E-02  0.8911E-02  0.7587E-04  0.7527E-04  0.7587E-04  0.7527E-04  0.7587E-04  0.7527E-04  0.0000E+00  0.0000E+00  0.0000E+00  0.0000E+00  0.0000E+00  0.0000E+00  0.0000E+00  0.0000E+00  0.0000E+00  0.0000E+00
     -3.326  0.1070E-01  0.1065E-01  0.1104E-03  0.1095E-03  0.1104E-03  0.1095E-03  0.1104E-03  0.1095E-03  0.0000E+00  0.0000E+00  0.0000E+00  0.0000E+00  0.0000E+00  0.0000E+00  0.0000E+00  0.0000E+00  0.0000E+00  0.0000E+00
     -3.257  0.1200E-01  0.1198E-01  0.1406E-03  0.1400E-03  0.1406E-03  0.1400E-03  0.1406E-03  0.1400E-03  0.0000E+00  0.0000E+00  0.0000E+00  0.0000E+00  0.0000E+00  0.0000E+00  0.0000E+00  0.0000E+00  0.0000E+00  0.0000E+00
     -3.188  0.1207E-01  0.1205E-01  0.1616E-03  0.1610E-03  0.1616E-03  0.1610E-03  0.1616E-03  0.1610E-03  0.0000E+00  0.0000E+00  0.0000E+00  0.0000E+00  0.0000E+00  0.0000E+00  0.0000E+00  0.0000E+00  0.0000E+00  0.0000E+00
     -3.118  0.1277E-01  0.1274E-01  0.1931E-03  0.1924E-03  0.1931E-03  0.1924E-03  0.1931E-03  0.1924E-03  0.0000E+00  0.0000E+00  0.0000E+00  0.0000E+00  0.0000E+00  0.0000E+00  0.0000E+00  0.0000E+00  0.0000E+00  0.0000E+00
     -3.049  0.1259E-01  0.1259E-01  0.2114E-03  0.2110E-03  0.2114E-03  0.2110E-03  0.2114E-03  0.2110E-03  0.0000E+00  0.0000E+00  0.0000E+00  0.0000E+00  0.0000E+00  0.0000E+00  0.0000E+00  0.0000E+00  0.0000E+00  0.0000E+00
     -2.980  0.1346E-01  0.1339E-01  0.2551E-03  0.2534E-03  0.2551E-03  0.2534E-03  0.2551E-03  0.2534E-03  0.0000E+00  0.0000E+00  0.0000E+00  0.0000E+00  0.0000E+00  0.0000E+00  0.0000E+00  0.0000E+00  0.0000E+00  0.0000E+00
     -2.911  0.1606E-01  0.1600E-01  0.3302E-03  0.3288E-03  0.3302E-03  0.3288E-03  0.3302E-03  0.3288E-03  0.0000E+00  0.0000E+00  0.0000E+00  0.0000E+00  0.0000E+00  0.0000E+00  0.0000E+00  0.0000E+00  0.0000E+00  0.0000E+00
     -2.842  0.1657E-01  0.1655E-01  0.3653E-03  0.3647E-03  0.3653E-03  0.3647E-03  0.3653E-03  0.3647E-03  0.0000E+00  0.0000E+00  0.0000E+00  0.0000E+00  0.0000E+00  0.0000E+00  0.0000E+00  0.0000E+00  0.0000E+00  0.0000E+00
     -2.772  0.1609E-01  0.1610E-01  0.3806E-03  0.3804E-03  0.3806E-03  0.3804E-03  0.3806E-03  0.3804E-03  0.0000E+00  0.0000E+00  0.0000E+00  0.0000E+00  0.0000E+00  0.0000E+00  0.0000E+00  0.0000E+00  0.0000E+00  0.0000E+00
     -2.703  0.1426E-01  0.1429E-01  0.3617E-03  0.3621E-03  0.3617E-03  0.3621E-03  0.3617E-03  0.3621E-03  0.0000E+00  0.0000E+00  0.0000E+00  0.0000E+00  0.0000E+00  0.0000E+00  0.0000E+00  0.0000E+00  0.0000E+00  0.0000E+00
     -2.634  0.1414E-01  0.1408E-01  0.3938E-03  0.3914E-03  0.3938E-03  0.3914E-03  0.3938E-03  0.3914E-03  0.0000E+00  0.0000E+00  0.0000E+00  0.0000E+00  0.0000E+00  0.0000E+00  0.0000E+00  0.0000E+00  0.0000E+00  0.0000E+00
     -2.565  0.1798E-01  0.1787E-01  0.5363E-03  0.5327E-03  0.5363E-03  0.5327E-03  0.5363E-03  0.5327E-03  0.0000E+00  0.0000E+00  0.0000E+00  0.0000E+00  0.0000E+00  0.0000E+00  0.0000E+00  0.0000E+00  0.0000E+00  0.0000E+00
     -2.496  0.2006E-01  0.2004E-01  0.6256E-03  0.6248E-03  0.6256E-03  0.6248E-03  0.6256E-03  0.6248E-03  0.0000E+00  0.0000E+00  0.0000E+00  0.0000E+00  0.0000E+00  0.0000E+00  0.0000E+00  0.0000E+00  0.0000E+00  0.0000E+00
     -2.426  0.1948E-01  0.1946E-01  0.6407E-03  0.6398E-03  0.6407E-03  0.6398E-03  0.6407E-03  0.6398E-03  0.0000E+00  0.0000E+00  0.0000E+00  0.0000E+00  0.0000E+00  0.0000E+00  0.0000E+00  0.0000E+00  0.0000E+00  0.0000E+00
     -2.357  0.1897E-01  0.1899E-01  0.6550E-03  0.6555E-03  0.6550E-03  0.6555E-03  0.6550E-03  0.6555E-03  0.0000E+00  0.0000E+00  0.0000E+00  0.0000E+00  0.0000E+00  0.0000E+00  0.0000E+00  0.0000E+00  0.0000E+00  0.0000E+00
     -2.288  0.1630E-01  0.1632E-01  0.5931E-03  0.5936E-03  0.5931E-03  0.5936E-03  0.5931E-03  0.5936E-03  0.0000E+00  0.0000E+00  0.0000E+00  0.0000E+00  0.0000E+00  0.0000E+00  0.0000E+00  0.0000E+00  0.0000E+00  0.0000E+00
     -2.219  0.1713E-01  0.1704E-01  0.6656E-03  0.6618E-03  0.6656E-03  0.6618E-03  0.6656E-03  0.6618E-03  0.0000E+00  0.0000E+00  0.0000E+00  0.0000E+00  0.0000E+00  0.0000E+00  0.0000E+00  0.0000E+00  0.0000E+00  0.0000E+00
     -2.150  0.2025E-01  0.2018E-01  0.8218E-03  0.8189E-03  0.8218E-03  0.8189E-03  0.8218E-03  0.8189E-03  0.0000E+00  0.0000E+00  0.0000E+00  0.0000E+00  0.0000E+00  0.0000E+00  0.0000E+00  0.0000E+00  0.0000E+00  0.0000E+00
     -2.081  0.2056E-01  0.2056E-01  0.8687E-03  0.8682E-03  0.8687E-03  0.8682E-03  0.8687E-03  0.8682E-03  0.0000E+00  0.0000E+00  0.0000E+00  0.0000E+00  0.0000E+00  0.0000E+00  0.0000E+00  0.0000E+00  0.0000E+00  0.0000E+00
     -2.011  0.1984E-01  0.1984E-01  0.8787E-03  0.8780E-03  0.8787E-03  0.8780E-03  0.8787E-03  0.8780E-03  0.0000E+00  0.0000E+00  0.0000E+00  0.0000E+00  0.0000E+00  0.0000E+00  0.0000E+00  0.0000E+00  0.0000E+00  0.0000E+00
     -1.942  0.1969E-01  0.1966E-01  0.9128E-03  0.9113E-03  0.9128E-03  0.9113E-03  0.9128E-03  0.9113E-03  0.0000E+00  0.0000E+00  0.0000E+00  0.0000E+00  0.0000E+00  0.0000E+00  0.0000E+00  0.0000E+00  0.0000E+00  0.0000E+00
     -1.873  0.2163E-01  0.2153E-01  0.1049E-02  0.1044E-02  0.1049E-02  0.1044E-02  0.1049E-02  0.1044E-02  0.0000E+00  0.0000E+00  0.0000E+00  0.0000E+00  0.0000E+00  0.0000E+00  0.0000E+00  0.0000E+00  0.0000E+00  0.0000E+00
     -1.804  0.2414E-01  0.2411E-01  0.1207E-02  0.1205E-02  0.1207E-02  0.1205E-02  0.1207E-02  0.1205E-02  0.0000E+00  0.0000E+00  0.0000E+00  0.0000E+00  0.0000E+00  0.0000E+00  0.0000E+00  0.0000E+00  0.0000E+00  0.0000E+00
     -1.735  0.2224E-01  0.2227E-01  0.1147E-02  0.1148E-02  0.1147E-02  0.1148E-02  0.1147E-02  0.1148E-02  0.0000E+00  0.0000E+00  0.0000E+00  0.0000E+00  0.0000E+00  0.0000E+00  0.0000E+00  0.0000E+00  0.0000E+00  0.0000E+00
     -1.665  0.2103E-01  0.2103E-01  0.1128E-02  0.1128E-02  0.1128E-02  0.1128E-02  0.1128E-02  0.1128E-02  0.0000E+00  0.0000E+00  0.0000E+00  0.0000E+00  0.0000E+00  0.0000E+00  0.0000E+00  0.0000E+00  0.0000E+00  0.0000E+00
     -1.596  0.1911E-01  0.1917E-01  0.1060E-02  0.1063E-02  0.1060E-02  0.1063E-02  0.1060E-02  0.1063E-02  0.0000E+00  0.0000E+00  0.0000E+00  0.0000E+00  0.0000E+00  0.0000E+00  0.0000E+00  0.0000E+00  0.0000E+00  0.0000E+00
     -1.527  0.1710E-01  0.1707E-01  0.9931E-03  0.9905E-03  0.9931E-03  0.9905E-03  0.9931E-03  0.9905E-03  0.0000E+00  0.0000E+00  0.0000E+00  0.0000E+00  0.0000E+00  0.0000E+00  0.0000E+00  0.0000E+00  0.0000E+00  0.0000E+00
     -1.458  0.2135E-01  0.2119E-01  0.1294E-02  0.1285E-02  0.1294E-02  0.1285E-02  0.1294E-02  0.1285E-02  0.0000E+00  0.0000E+00  0.0000E+00  0.0000E+00  0.0000E+00  0.0000E+00  0.0000E+00  0.0000E+00  0.0000E+00  0.0000E+00
     -1.389  0.2567E-01  0.2560E-01  0.1599E-02  0.1595E-02  0.1599E-02  0.1595E-02  0.1599E-02  0.1595E-02  0.0000E+00  0.0000E+00  0.0000E+00  0.0000E+00  0.0000E+00  0.0000E+00  0.0000E+00  0.0000E+00  0.0000E+00  0.0000E+00
     -1.320  0.2650E-01  0.2645E-01  0.1702E-02  0.1699E-02  0.1702E-02  0.1699E-02  0.1702E-02  0.1699E-02  0.0000E+00  0.0000E+00  0.0000E+00  0.0000E+00  0.0000E+00  0.0000E+00  0.0000E+00  0.0000E+00  0.0000E+00  0.0000E+00
     -1.250  0.2690E-01  0.2690E-01  0.1777E-02  0.1777E-02  0.1777E-02  0.1777E-02  0.1777E-02  0.1777E-02  0.0000E+00  0.0000E+00  0.0000E+00  0.0000E+00  0.0000E+00  0.0000E+00  0.0000E+00  0.0000E+00  0.0000E+00  0.0000E+00