   4   4   1   0
  0.1962919E+02  0.4282073E-09  0.4282073E-09  0.4282073E-09  0.5000000E-15
  1.000000000000000E-004
  CAR 
 unknown system                          
     16.53297296     -4.65004017  301      6.28531296      1.00000000
     -4.650  0.0000E+00  0.0000E+00  0.0000E+00  0.0000E+00
     -4.579  0.0000E+00  0.0000E+00  0.0000E+00  0.0000E+00
     -4.509  0.0000E+00  0.0000E+00  0.0000E+00  0.0000E+00
     -4.438  0.0000E+00  0.0000E+00  0.0000E+00  0.0000E+00
     -4.368  0.0000E+00  0.0000E+00  0.0000E+00  0.0000E+00
     -4.297  0.0000E+00  0.0000E+00  0.0000E+00  0.0000E+00
     -4.226  0.0000E+00  0.0000E+00  0.0000E+00  0.0000E+00
     -4.156  0.5484E-06  0.5319E-06  0.3872E-07  0.3756E-07
     -4.085  0.6900E-05  0.6693E-05  0.5259E-06  0.5101E-06
     -4.015  0.4375E-04  0.3835E-04  0.3615E-05  0.3218E-05
     -3.944  0.1636E-03  0.1628E-03  0.1517E-04  0.1471E-04
     -3.873  0.6925E-03  0.6719E-03  0.6407E-04  0.6216E-04
     -3.803  0.2770E-02  0.2690E-02  0.2597E-03  0.2521E-03
     -3.732  0.1009E-01  0.9829E-02  0.9722E-03  0.9461E-03
     -3.661  0.2975E-01  0.2916E-01  0.3073E-02  0.3005E-02
     -3.591  0.6120E-01  0.6050E-01  0.7394E-02  0.7277E-02
     -3.520  0.9119E-01  0.9056E-01  0.1383E-01  0.1367E-01
     -3.450  0.1230E+00  0.1223E+00  0.2252E-01  0.2230E-01
     -3.379  0.1433E+00  0.1432E+00  0.3264E-01  0.3242E-01
     -3.308  0.1479E+00  0.1476E+00  0.4308E-01  0.4284E-01
     -3.238  0.1791E+00  0.1783E+00  0.5573E-01  0.5543E-01
     -3.167  0.2015E+00  0.2014E+00  0.6996E-01  0.6965E-01
     -3.097  0.2029E+00  0.2028E+00  0.8429E-01  0.8398E-01
     -3.026  0.2163E+00  0.2161E+00  0.9958E-01  0.9924E-01
     -2.955  0.2132E+00  0.2135E+00  0.1146E+00  0.1143E+00
     -2.885  0.2298E+00  0.2288E+00  0.1309E+00  0.1305E+00
     -2.814  0.2768E+00  0.2762E+00  0.1504E+00  0.1500E+00
     -2.744  0.2857E+00  0.2857E+00  0.1706E+00  0.1702E+00
     -2.673  0.2785E+00  0.2789E+00  0.1903E+00  0.1899E+00
     -2.602  0.2462E+00  0.2469E+00  0.2077E+00  0.2073E+00
     -2.532  0.2465E+00  0.2456E+00  0.2251E+00  0.2247E+00
     -2.461  0.3186E+00  0.3170E+00  0.2476E+00  0.2471E+00
     -2.391  0.3550E+00  0.3551E+00  0.2727E+00  0.2722E+00
     -2.320  0.3451E+00  0.3451E+00  0.2971E+00  0.2966E+00
     -2.249  0.3375E+00  0.3382E+00  0.3209E+00  0.3205E+00
     -2.179  0.2887E+00  0.2894E+00  0.3413E+00  0.3409E+00
     -2.108  0.3092E+00  0.3078E+00  0.3632E+00  0.3626E+00
     -2.037  0.3684E+00  0.3676E+00  0.3892E+00  0.3886E+00
     -1.967  0.3732E+00  0.3735E+00  0.4156E+00  0.4150E+00
     -1.896  0.3617E+00  0.3618E+00  0.4411E+00  0.4406E+00
     -1.826  0.3604E+00  0.3603E+00  0.4666E+00  0.4660E+00
     -1.755  0.4014E+00  0.3998E+00  0.4950E+00  0.4943E+00
     -1.684  0.4487E+00  0.4487E+00  0.5266E+00  0.5260E+00
     -1.614  0.4108E+00  0.4117E+00  0.5557E+00  0.5551E+00
     -1.543  0.3928E+00  0.3930E+00  0.5834E+00  0.5828E+00
     -1.473  0.3551E+00  0.3565E+00  0.6086E+00  0.6081E+00
     -1.402  0.3211E+00  0.3205E+00  0.6312E+00  0.6307E+00
     -1.331  0.4111E+00  0.4084E+00  0.6603E+00  0.6596E+00
     -1.261  0.4934E+00  0.4926E+00  0.6952E+00  0.6944E+00
     -1.190  0.5093E+00  0.5089E+00  0.7311E+00  0.7303E+00
     -1.120  0.5187E+00  0.5192E+00  0.7678E+00  0.7670E+00
     -1.049  0.4556E+00  0.4572E+00  0.8000E+00  0.7993E+00
     -0.978  0.4103E+00  0.4106E+00  0.8289E+00  0.8283E+00
     -0.908  0.4090E+00  0.4088E+00  0.8579E+00  0.8572E+00
     -0.837  0.4286E+00  0.4279E+00  0.8881E+00  0.8875E+00
     -0.766  0.4703E+00  0.4695E+00  0.9214E+00  0.9207E+00
     -0.696  0.4585E+00  0.4594E+00  0.9538E+00  0.9531E+00
     -0.625  0.4697E+00  0.4680E+00  0.9870E+00  0.9862E+00
     -0.555  0.5645E+00  0.5632E+00  0.1027E+01  0.1026E+01
     -0.484  0.5658E+00  0.5664E+00  0.1067E+01  0.1066E+01
     -0.413  0.5411E+00  0.5418E+00  0.1105E+01  0.1104E+01
     -0.343  0.4700E+00  0.4720E+00  0.1138E+01  0.1138E+01
     -0.272  0.4349E+00  0.4340E+00  0.1169E+01  0.1168E+01
     -0.202  0.5412E+00  0.5385E+00  0.1207E+01  0.1206E+01
     -0.131  0.6065E+00  0.6066E+00  0.1250E+01  0.1249E+01
     -0.060  0.5617E+00  0.5629E+00  0.1290E+01  0.1289E+01
      0.010  0.4908E+00  0.4927E+00  0.1325E+01  0.1324E+01
      0.081  0.4312E+00  0.4312E+00  0.1355E+01  0.1354E+01
      0.151  0.5041E+00  0.5018E+00  0.1391E+01  0.1390E+01
      0.222  0.5771E+00  0.5764E+00  0.1431E+01  0.1431E+01
      0.293  0.5882E+00  0.5881E+00  0.1473E+01  0.1472E+01
      0.363  0.5971E+00  0.5970E+00  0.1515E+01  0.1514E+01
      0.434  0.5915E+00  0.5914E+00  0.1557E+01  0.1556E+01
      0.504  0.6674E+00  0.6645E+00  0.1604E+01  0.1603E+01
      0.575  0.7364E+00  0.7374E+00  0.1656E+01  0.1655E+01
      0.646  0.5893E+00  0.5932E+00  0.1698E+01  0.1697E+01
      0.716  0.4757E+00  0.4766E+00  0.1731E+01  0.1731E+01
      0.787  0.4456E+00  0.4463E+00  0.1763E+01  0.1762E+01
      0.858  0.4487E+00  0.4473E+00  0.1795E+01  0.1794E+01
      0.928  0.5780E+00  0.5747E+00  0.1835E+01  0.1834E+01
      0.999  0.6959E+00  0.6943E+00  0.1885E+01  0.1884E+01
      1.069  0.7412E+00  0.7411E+00  0.1937E+01  0.1936E+01
      1.140  0.6785E+00  0.6810E+00  0.1985E+01  0.1984E+01
      1.211  0.6126E+00  0.6123E+00  0.2028E+01  0.2027E+01
      1.281  0.6666E+00  0.6656E+00  0.2075E+01  0.2074E+01
      1.352  0.6740E+00  0.6745E+00  0.2123E+01  0.2122E+01
      1.422  0.6574E+00  0.6573E+00  0.2169E+01  0.2168E+01
      1.493  0.6532E+00  0.6542E+00  0.2216E+01  0.2215E+01
      1.564  0.5623E+00  0.5640E+00  0.2255E+01  0.2254E+01
      1.634  0.5787E+00  0.5765E+00  0.2296E+01  0.2295E+01
      1.705  0.6824E+00  0.6809E+00  0.2344E+01  0.2343E+01
      1.775  0.7252E+00  0.7248E+00  0.2396E+01  0.2395E+01
      1.846  0.7056E+00  0.7072E+00  0.2445E+01  0.2444E+01
      1.917  0.6075E+00  0.6090E+00  0.2488E+01  0.2488E+01
      1.987  0.6249E+00  0.6230E+00  0.2533E+01  0.2532E+01
      2.058  0.7005E+00  0.6999E+00  0.2582E+01  0.2581E+01
      2.129  0.7021E+00  0.7018E+00  0.2632E+01  0.2631E+01
      2.199  0.7602E+00  0.7591E+00  0.2685E+01  0.2684E+01
      2.270  0.7236E+00  0.7257E+00  0.2736E+01  0.2735E+01
      2.340  0.6766E+00  0.6758E+00  0.2784E+01  0.2783E+01
      2.411  0.7517E+00  0.7503E+00  0.2837E+01  0.2836E+01
      2.482  0.7696E+00  0.7700E+00  0.2892E+01  0.2891E+01
      2.552  0.7412E+00  0.7417E+00  0.2944E+01  0.2943E+01
      2.623  0.7079E+00  0.7089E+00  0.2994E+01  0.2993E+01
      2.693  0.6739E+00  0.6736E+00  0.3042E+01  0.3041E+01
      2.764  0.7305E+00  0.7292E+00  0.3093E+01  0.3092E+01
      2.835  0.7451E+00  0.7461E+00  0.3146E+01  0.3145E+01
      2.905  0.6594E+00  0.6618E+00  0.3193E+01  0.3192E+01
      2.976  0.5526E+00  0.5540E+00  0.3232E+01  0.3231E+01
      3.046  0.5907E+00  0.5877E+00  0.3273E+01  0.3272E+01
      3.117  0.8068E+00  0.8024E+00  0.3330E+01  0.3329E+01
      3.188  0.9347E+00  0.9343E+00  0.3396E+01  0.3395E+01
      3.258  0.9091E+00  0.9097E+00  0.3461E+01  0.3459E+01
      3.329  0.8805E+00  0.8814E+00  0.3523E+01  0.3522E+01
      3.400  0.8322E+00  0.8326E+00  0.3582E+01  0.3580E+01
      3.470  0.8656E+00  0.8650E+00  0.3643E+01  0.3642E+01
      3.541  0.8299E+00  0.8320E+00  0.3701E+01  0.3700E+01
      3.611  0.6976E+00  0.7004E+00  0.3751E+01  0.3750E+01
      3.682  0.6115E+00  0.6121E+00  0.3794E+01  0.3793E+01
      3.753  0.6554E+00  0.6534E+00  0.3840E+01  0.3839E+01
      3.823  0.8226E+00  0.8190E+00  0.3898E+01  0.3897E+01
      3.894  0.9331E+00  0.9328E+00  0.3964E+01  0.3963E+01
      3.964  0.8929E+00  0.8939E+00  0.4027E+01  0.4026E+01
      4.035  0.8722E+00  0.8723E+00  0.4089E+01  0.4088E+01
      4.106  0.8441E+00  0.8450E+00  0.4149E+01  0.4148E+01
      4.176  0.8402E+00  0.8399E+00  0.4208E+01  0.4207E+01
      4.247  0.8745E+00  0.8739E+00  0.4270E+01  0.4269E+01
      4.317  0.8784E+00  0.8786E+00  0.4332E+01  0.4331E+01
      4.388  0.8344E+00  0.8359E+00  0.4391E+01  0.4390E+01
      4.459  0.7041E+00  0.7075E+00  0.4441E+01  0.4440E+01
      4.529  0.5885E+00  0.5893E+00  0.4482E+01  0.4482E+01
      4.600  0.6625E+00  0.6595E+00  0.4529E+01  0.4528E+01
      4.670  0.8195E+00  0.8160E+00  0.4587E+01  0.4586E+01
      4.741  0.9100E+00  0.9088E+00  0.4651E+01  0.4650E+01
      4.812  0.8990E+00  0.8993E+00  0.4715E+01  0.4714E+01
      4.882  0.9275E+00  0.9261E+00  0.4780E+01  0.4779E+01
      4.953  0.9867E+00  0.9874E+00  0.4850E+01  0.4849E+01
      5.024  0.8700E+00  0.8728E+00  0.4912E+01  0.4910E+01
      5.094  0.7760E+00  0.7766E+00  0.4966E+01  0.4965E+01
      5.165  0.7079E+00  0.7097E+00  0.5016E+01  0.5015E+01
      5.235  0.6748E+00  0.6739E+00  0.5064E+01  0.5063E+01
      5.306  0.8218E+00  0.8186E+00  0.5122E+01  0.5121E+01
      5.377  0.9134E+00  0.9133E+00  0.5187E+01  0.5185E+01
      5.447  0.8543E+00  0.8555E+00  0.5247E+01  0.5246E+01
      5.518  0.7759E+00  0.7765E+00  0.5302E+01  0.5301E+01
      5.588  0.8066E+00  0.8048E+00  0.5359E+01  0.5358E+01
      5.659  0.8937E+00  0.8930E+00  0.5422E+01  0.5421E+01
      5.730  0.8835E+00  0.8829E+00  0.5484E+01  0.5483E+01
      5.800  0.9324E+00  0.9304E+00  0.5550E+01  0.5549E+01
      5.871  0.9897E+00  0.9890E+00  0.5620E+01  0.5619E+01
      5.941  0.1014E+01  0.1013E+01  0.5692E+01  0.5690E+01
      6.012  0.1074E+01  0.1073E+01  0.5768E+01  0.5766E+01
      6.083  0.1041E+01  0.1043E+01  0.5841E+01  0.5840E+01
      6.153  0.8758E+00  0.8794E+00  0.5903E+01  0.5902E+01
      6.224  0.7207E+00  0.7217E+00  0.5954E+01  0.5953E+01
      6.295  0.7690E+00  0.7654E+00  0.6008E+01  0.6007E+01
      6.365  0.9220E+00  0.9204E+00  0.6074E+01  0.6072E+01
      6.436  0.8799E+00  0.8828E+00  0.6136E+01  0.6135E+01
      6.506  0.7664E+00  0.7677E+00  0.6190E+01  0.6189E+01
      6.577  0.7759E+00  0.7751E+00  0.6245E+01  0.6244E+01
      6.648  0.8743E+00  0.8715E+00  0.6307E+01  0.6305E+01
      6.718  0.1046E+01  0.1043E+01  0.6381E+01  0.6379E+01
      6.789  0.1079E+01  0.1079E+01  0.6457E+01  0.6455E+01
      6.859  0.1044E+01  0.1044E+01  0.6530E+01  0.6529E+01
      6.930  0.1014E+01  0.1014E+01  0.6602E+01  0.6601E+01
      7.001  0.9958E+00  0.9952E+00  0.6672E+01  0.6671E+01
      7.071  0.1030E+01  0.1030E+01  0.6745E+01  0.6744E+01
      7.142  0.9591E+00  0.9617E+00  0.6813E+01  0.6812E+01
      7.212  0.8545E+00  0.8550E+00  0.6873E+01  0.6872E+01
      7.283  0.8621E+00  0.8621E+00  0.6934E+01  0.6933E+01
      7.354  0.8747E+00  0.8742E+00  0.6996E+01  0.6995E+01
      7.424  0.9422E+00  0.9413E+00  0.7063E+01  0.7061E+01
      7.495  0.9825E+00  0.9819E+00  0.7132E+01  0.7131E+01
      7.565  0.1082E+01  0.1079E+01  0.7209E+01  0.7207E+01
      7.636  0.1173E+01  0.1172E+01  0.7291E+01  0.7290E+01
      7.707  0.1103E+01  0.1105E+01  0.7369E+01  0.7368E+01
      7.777  0.1044E+01  0.1045E+01  0.7443E+01  0.7442E+01
      7.848  0.1026E+01  0.1027E+01  0.7516E+01  0.7514E+01
      7.919  0.9614E+00  0.9623E+00  0.7584E+01  0.7582E+01
      7.989  0.8750E+00  0.8770E+00  0.7645E+01  0.7644E+01
      8.060  0.7659E+00  0.7681E+00  0.7700E+01  0.7698E+01
      8.130  0.7989E+00  0.7982E+00  0.7756E+01  0.7755E+01
      8.201  0.8860E+00  0.8851E+00  0.7819E+01  0.7817E+01
      8.272  0.9529E+00  0.9507E+00  0.7886E+01  0.7884E+01
      8.342  0.1021E+01  0.1018E+01  0.7958E+01  0.7956E+01
      8.413  0.1114E+01  0.1110E+01  0.8037E+01  0.8035E+01
      8.483  0.1277E+01  0.1274E+01  0.8127E+01  0.8125E+01
      8.554  0.1327E+01  0.1327E+01  0.8221E+01  0.8219E+01
      8.625  0.1297E+01  0.1298E+01  0.8312E+01  0.8310E+01
      8.695  0.1168E+01  0.1172E+01  0.8395E+01  0.8393E+01
      8.766  0.1003E+01  0.1005E+01  0.8466E+01  0.8464E+01
      8.836  0.9871E+00  0.9877E+00  0.8536E+01  0.8534E+01
      8.907  0.9076E+00  0.9110E+00  0.8600E+01  0.8598E+01
      8.978  0.8041E+00  0.8043E+00  0.8657E+01  0.8655E+01
      9.048  0.8933E+00  0.8889E+00  0.8720E+01  0.8718E+01
      9.119  0.1089E+01  0.1084E+01  0.8797E+01  0.8795E+01
      9.190  0.1192E+01  0.1192E+01  0.8881E+01  0.8879E+01
      9.260  0.1099E+01  0.1102E+01  0.8959E+01  0.8957E+01
      9.331  0.1062E+01  0.1061E+01  0.9034E+01  0.9032E+01
      9.401  0.1143E+01  0.1143E+01  0.9114E+01  0.9112E+01
      9.472  0.1082E+01  0.1083E+01  0.9191E+01  0.9189E+01
      9.543  0.1110E+01  0.1109E+01  0.9269E+01  0.9267E+01
      9.613  0.1114E+01  0.1115E+01  0.9348E+01  0.9346E+01
      9.684  0.1026E+01  0.1026E+01  0.9420E+01  0.9419E+01
      9.754  0.1011E+01  0.1010E+01  0.9492E+01  0.9490E+01
      9.825  0.1032E+01  0.1030E+01  0.9565E+01  0.9563E+01
      9.896  0.1090E+01  0.1089E+01  0.9642E+01  0.9640E+01
      9.966  0.1118E+01  0.1115E+01  0.9721E+01  0.9719E+01
     10.037  0.1277E+01  0.1273E+01  0.9811E+01  0.9809E+01
     10.107  0.1324E+01  0.1326E+01  0.9904E+01  0.9902E+01
     10.178  0.1201E+01  0.1204E+01  0.9989E+01  0.9987E+01
     10.249  0.1110E+01  0.1110E+01  0.1007E+02  0.1007E+02
     10.319  0.1148E+01  0.1146E+01  0.1015E+02  0.1015E+02
     10.390  0.1258E+01  0.1256E+01  0.1024E+02  0.1024E+02
     10.461  0.1251E+01  0.1254E+01  0.1033E+02  0.1032E+02
     10.531  0.1149E+01  0.1152E+01  0.1041E+02  0.1041E+02
     10.602  0.1068E+01  0.1072E+01  0.1048E+02  0.1048E+02
     10.672  0.9134E+00  0.9161E+00  0.1055E+02  0.1055E+02
     10.743  0.9847E+00  0.9804E+00  0.1062E+02  0.1062E+02
     10.814  0.1132E+01  0.1133E+01  0.1070E+02  0.1070E+02
     10.884  0.9615E+00  0.9673E+00  0.1076E+02  0.1076E+02
     10.955  0.8298E+00  0.8327E+00  0.1082E+02  0.1082E+02
     11.025  0.8179E+00  0.8187E+00  0.1088E+02  0.1088E+02
     11.096  0.8184E+00  0.8198E+00  0.1094E+02  0.1094E+02
     11.167  0.8657E+00  0.8610E+00  0.1100E+02  0.1100E+02
     11.237  0.9544E+00  0.9344E+00  0.1107E+02  0.1107E+02
     11.308  0.9815E+00  0.9689E+00  0.1114E+02  0.1113E+02
     11.378  0.8805E+00  0.8918E+00  0.1120E+02  0.1120E+02
     11.449  0.7777E+00  0.7927E+00  0.1125E+02  0.1125E+02
     11.520  0.5870E+00  0.5982E+00  0.1130E+02  0.1130E+02
     11.590  0.3968E+00  0.4011E+00  0.1132E+02  0.1132E+02
     11.661  0.3586E+00  0.3590E+00  0.1135E+02  0.1135E+02
     11.731  0.3587E+00  0.3594E+00  0.1137E+02  0.1137E+02
     11.802  0.3772E+00  0.3781E+00  0.1140E+02  0.1140E+02
     11.873  0.4293E+00  0.4324E+00  0.1143E+02  0.1143E+02
     11.943  0.4663E+00  0.4691E+00  0.1146E+02  0.1146E+02
     12.014  0.3969E+00  0.3947E+00  0.1149E+02  0.1149E+02
     12.085  0.3020E+00  0.3003E+00  0.1151E+02  0.1151E+02
     12.155  0.2656E+00  0.2646E+00  0.1153E+02  0.1153E+02
     12.226  0.3091E+00  0.3078E+00  0.1155E+02  0.1155E+02
     12.296  0.3966E+00  0.3958E+00  0.1158E+02  0.1158E+02
     12.367  0.3769E+00  0.3784E+00  0.1161E+02  0.1161E+02
     12.438  0.3403E+00  0.3399E+00  0.1163E+02  0.1163E+02
     12.508  0.3520E+00  0.3527E+00  0.1166E+02  0.1166E+02
     12.579  0.2859E+00  0.2912E+00  0.1168E+02  0.1168E+02
     12.649  0.2047E+00  0.2140E+00  0.1169E+02  0.1169E+02
     12.720  0.1882E+00  0.1935E+00  0.1171E+02  0.1171E+02
     12.791  0.2147E+00  0.2085E+00  0.1172E+02  0.1172E+02
     12.861  0.2183E+00  0.2123E+00  0.1174E+02  0.1174E+02
     12.932  0.2115E+00  0.2140E+00  0.1175E+02  0.1175E+02
     13.002  0.2036E+00  0.2191E+00  0.1177E+02  0.1177E+02
     13.073  0.1826E+00  0.1961E+00  0.1178E+02  0.1178E+02
     13.144  0.1654E+00  0.1519E+00  0.1179E+02  0.1179E+02
     13.214  0.1554E+00  0.1393E+00  0.1180E+02  0.1180E+02
     13.285  0.2089E+00  0.2015E+00  0.1182E+02  0.1182E+02
     13.356  0.2500E+00  0.2485E+00  0.1183E+02  0.1183E+02
     13.426  0.2183E+00  0.2197E+00  0.1185E+02  0.1185E+02
     13.497  0.1204E+00  0.1227E+00  0.1186E+02  0.1186E+02
     13.567  0.5351E-01  0.5456E-01  0.1186E+02  0.1186E+02
     13.638  0.6174E-01  0.6233E-01  0.1187E+02  0.1187E+02
     13.709  0.1395E+00  0.1424E+00  0.1188E+02  0.1188E+02
     13.779  0.2223E+00  0.2288E+00  0.1189E+02  0.1189E+02
     13.850  0.2029E+00  0.2021E+00  0.1191E+02  0.1191E+02
     13.920  0.1016E+00  0.9623E-01  0.1191E+02  0.1191E+02
     13.991  0.3896E-01  0.3625E-01  0.1192E+02  0.1192E+02
     14.062  0.3677E-01  0.3520E-01  0.1192E+02  0.1192E+02
     14.132  0.8771E-01  0.8564E-01  0.1193E+02  0.1192E+02
     14.203  0.1561E+00  0.1551E+00  0.1194E+02  0.1194E+02
     14.273  0.1396E+00  0.1412E+00  0.1195E+02  0.1195E+02
     14.344  0.6834E-01  0.6986E-01  0.1195E+02  0.1195E+02
     14.415  0.2827E-01  0.2872E-01  0.1195E+02  0.1195E+02
     14.485  0.3039E-01  0.2988E-01  0.1195E+02  0.1195E+02
     14.556  0.7088E-01  0.6964E-01  0.1196E+02  0.1196E+02
     14.627  0.1051E+00  0.1050E+00  0.1197E+02  0.1197E+02
     14.697  0.6870E-01  0.6998E-01  0.1197E+02  0.1197E+02
     14.768  0.2442E-01  0.2503E-01  0.1197E+02  0.1197E+02
     14.838  0.7478E-02  0.7311E-02  0.1197E+02  0.1197E+02
     14.909  0.5341E-02  0.3909E-02  0.1197E+02  0.1197E+02
     14.980  0.1390E-01  0.8879E-02  0.1198E+02  0.1198E+02
     15.050  0.3683E-01  0.2673E-01  0.1198E+02  0.1198E+02
     15.121  0.5240E-01  0.5064E-01  0.1198E+02  0.1198E+02
     15.191  0.3266E-01  0.4275E-01  0.1198E+02  0.1198E+02
     15.262  0.1272E-01  0.1907E-01  0.1199E+02  0.1199E+02
     15.333  0.9556E-02  0.1205E-01  0.1199E+02  0.1199E+02
     15.403  0.2280E-01  0.2492E-01  0.1199E+02  0.1199E+02
     15.474  0.4971E-01  0.5196E-01  0.1199E+02  0.1199E+02
     15.544  0.5986E-01  0.5881E-01  0.1200E+02  0.1200E+02
     15.615  0.4114E-01  0.3886E-01  0.1200E+02  0.1200E+02
     15.686  0.1766E-01  0.1679E-01  0.1200E+02  0.1200E+02
     15.756  0.5336E-02  0.5122E-02  0.1200E+02  0.1200E+02
     15.827  0.1383E-02  0.1332E-02  0.1200E+02  0.1200E+02
     15.897  0.2862E-03  0.2279E-03  0.1200E+02  0.1200E+02
     15.968  0.5407E-04  0.5583E-04  0.1200E+02  0.1200E+02
     16.039  0.0000E+00  0.0000E+00  0.1200E+02  0.1200E+02
     16.109  0.0000E+00  0.0000E+00  0.1200E+02  0.1200E+02
     16.180  0.0000E+00  0.0000E+00  0.1200E+02  0.1200E+02
     16.251  0.0000E+00  0.0000E+00  0.1200E+02  0.1200E+02
     16.321  0.0000E+00  0.0000E+00  0.1200E+02  0.1200E+02
     16.392  0.0000E+00  0.0000E+00  0.1200E+02  0.1200E+02
     16.462  0.0000E+00  0.0000E+00  0.1200E+02  0.1200E+02
     16.533  0.0000E+00  0.0000E+00  0.1200E+02  0.1200E+02
     16.53297296     -4.65004017  301      6.28531296      1.00000000
     -4.650  0.0000E+00  0.0000E+00  0.0000E+00  0.0000E+00  0.0000E+00  0.0000E+00  0.0000E+00  0.0000E+00  0.0000E+00  0.0000E+00  0.0000E+00  0.0000E+00  0.0000E+00  0.0000E+00  0.0000E+00  0.0000E+00  0.0000E+00  0.0000E+00
     -4.579  0.0000E+00  0.0000E+00  0.0000E+00  0.0000E+00  0.0000E+00  0.0000E+00  0.0000E+00  0.0000E+00  0.0000E+00  0.0000E+00  0.0000E+00  0.0000E+00  0.0000E+00  0.0000E+00  0.0000E+00  0.0000E+00  0.0000E+00  0.0000E+00
     -4.509  0.0000E+00  0.0000E+00  0.0000E+00  0.0000E+00  0.0000E+00  0.0000E+00  0.0000E+00  0.0000E+00  0.0000E+00  0.0000E+00  0.0000E+00  0.0000E+00  0.0000E+00  0.0000E+00  0.0000E+00  0.0000E+00  0.0000E+00  0.0000E+00
     -4.438  0.0000E+00  0.0000E+00  0.0000E+00  0.0000E+00  0.0000E+00  0.0000E+00  0.0000E+00  0.0000E+00  0.0000E+00  0.0000E+00  0.0000E+00  0.0000E+00  0.0000E+00  0.0000E+00  0.0000E+00  0.0000E+00  0.0000E+00  0.0000E+00
     -4.368  0.0000E+00  0.0000E+00  0.0000E+00  0.0000E+00  0.0000E+00  0.0000E+00  0.0000E+00  0.0000E+00  0.0000E+00  0.0000E+00  0.0000E+00  0.0000E+00  0.0000E+00  0.0000E+00  0.0000E+00  0.0000E+00  0.0000E+00  0.0000E+00
     -4.297  0.0000E+00  0.0000E+00  0.0000E+00  0.0000E+00  0.0000E+00  0.0000E+00  0.0000E+00  0.0000E+00  0.0000E+00  0.0000E+00  0.0000E+00  0.0000E+00  0.0000E+00  0.0000E+00  0.0000E+00  0.0000E+00  0.0000E+00  0.0000E+00
     -4.226  0.0000E+00  0.0000E+00  0.0000E+00  0.0000E+00  0.0000E+00  0.0000E+00  0.0000E+00  0.0000E+00  0.0000E+00  0.0000E+00  0.0000E+00  0.0000E+00  0.0000E+00  0.0000E+00  0.0000E+00  0.0000E+00  0.0000E+00  0.0000E+00
     -4.156  0.3362E-07  0.3258E-07  0.2017E-22  0.5249E-20  0.2017E-22  0.5249E-20  0.2017E-22  0.5249E-20  0.0000E+00  0.0000E+00  0.0000E+00  0.0000E+00  0.0000E+00  0.0000E+00  0.0000E+00  0.0000E+00  0.0000E+00  0.0000E+00
     -4.085  0.4220E-06  0.4089E-06  0.3660E-09  0.3549E-09  0.3660E-09  0.3549E-09  0.3660E-09  0.3549E-09  0.0000E+00  0.0000E+00  0.0000E+00  0.0000E+00  0.0000E+00  0.0000E+00  0.0000E+00  0.0000E+00  0.0000E+00  0.0000E+00
     -4.015  0.2670E-05  0.2339E-05  0.4332E-08  0.3340E-08  0.4332E-08  0.3340E-08  0.4332E-08  0.3340E-08  0.0000E+00  0.0000E+00  0.0000E+00  0.0000E+00  0.0000E+00  0.0000E+00  0.0000E+00  0.0000E+00  0.0000E+00  0.0000E+00
     -3.944  0.9986E-05  0.9925E-05  0.1597E-07  0.1635E-07  0.1597E-07  0.1635E-07  0.1597E-07  0.1635E-07  0.0000E+00  0.0000E+00  0.0000E+00  0.0000E+00  0.0000E+00  0.0000E+00  0.0000E+00  0.0000E+00  0.0000E+00  0.0000E+00
     -3.873  0.4225E-04  0.4095E-04  0.7497E-07  0.7270E-07  0.7497E-07  0.7270E-07  0.7497E-07  0.7270E-07  0.0000E+00  0.0000E+00  0.0000E+00  0.0000E+00  0.0000E+00  0.0000E+00  0.0000E+00  0.0000E+00  0.0000E+00  0.0000E+00
     -3.803  0.1690E-03  0.1639E-03  0.3130E-06  0.3037E-06  0.3130E-06  0.3037E-06  0.3130E-06  0.3037E-06  0.0000E+00  0.0000E+00  0.0000E+00  0.0000E+00  0.0000E+00  0.0000E+00  0.0000E+00  0.0000E+00  0.0000E+00  0.0000E+00
     -3.732  0.6153E-03  0.5988E-03  0.1202E-05  0.1168E-05  0.1202E-05  0.1168E-05  0.1202E-05  0.1168E-05  0.0000E+00  0.0000E+00  0.0000E+00  0.0000E+00  0.0000E+00  0.0000E+00  0.0000E+00  0.0000E+00  0.0000E+00  0.0000E+00
     -3.661  0.1812E-02  0.1775E-02  0.4136E-05  0.4035E-05  0.4136E-05  0.4035E-05  0.4136E-05  0.4035E-05  0.0000E+00  0.0000E+00  0.0000E+00  0.0000E+00  0.0000E+00  0.0000E+00  0.0000E+00  0.0000E+00  0.0000E+00  0.0000E+00
     -3.591  0.3722E-02  0.3676E-02  0.1095E-04  0.1075E-04  0.1095E-04  0.1075E-04  0.1095E-04  0.1075E-04  0.0000E+00  0.0000E+00  0.0000E+00  0.0000E+00  0.0000E+00  0.0000E+00  0.0000E+00  0.0000E+00  0.0000E+00  0.0000E+00
     -3.520  0.5527E-02  0.5484E-02  0.2285E-04  0.2252E-04  0.2285E-04  0.2252E-04  0.2285E-04  0.2252E-04  0.0000E+00  0.0000E+00  0.0000E+00  0.0000E+00  0.0000E+00  0.0000E+00  0.0000E+00  0.0000E+00  0.0000E+00  0.0000E+00
     -3.450  0.7422E-02  0.7373E-02  0.4147E-04  0.4101E-04  0.4147E-04  0.4101E-04  0.4147E-04  0.4101E-04  0.0000E+00  0.0000E+00  0.0000E+00  0.0000E+00  0.0000E+00  0.0000E+00  0.0000E+00  0.0000E+00  0.0000E+00  0.0000E+00
     -3.379  0.8622E-02  0.8607E-02  0.5937E-04  0.5903E-04  0.5937E-04  0.5903E-04  0.5937E-04  0.5903E-04  0.0000E+00  0.0000E+00  0.0000E+00  0.0000E+00  0.0000E+00  0.0000E+00  0.0000E+00  0.0000E+00  0.0000E+00  0.0000E+00
     -3.308  0.8852E-02  0.8825E-02  0.7737E-04  0.7677E-04  0.7737E-04  0.7677E-04  0.7737E-04  0.7677E-04  0.0000E+00  0.0000E+00  0.0000E+00  0.0000E+00  0.0000E+00  0.0000E+00  0.0000E+00  0.0000E+00  0.0000E+00  0.0000E+00
     -3.238  0.1066E-01  0.1060E-01  0.1133E-03  0.1124E-03  0.1133E-03  0.1124E-03  0.1133E-03  0.1124E-03  0.0000E+00  0.0000E+00  0.0000E+00  0.0000E+00  0.0000E+00  0.0000E+00  0.0000E+00  0.0000E+00  0.0000E+00  0.0000E+00
     -3.167  0.1195E-01  0.1193E-01  0.1443E-03  0.1438E-03  0.1443E-03  0.1438E-03  0.1443E-03  0.1438E-03  0.0000E+00  0.0000E+00  0.0000E+00  0.0000E+00  0.0000E+00  0.0000E+00  0.0000E+00  0.0000E+00  0.0000E+00  0.0000E+00
     -3.097  0.1198E-01  0.1196E-01  0.1654E-03  0.1647E-03  0.1654E-03  0.1647E-03  0.1654E-03  0.1647E-03  0.0000E+00  0.0000E+00  0.0000E+00  0.0000E+00  0.0000E+00  0.0000E+00  0.0000E+00  0.0000E+00  0.0000E+00  0.0000E+00
     -3.026  0.1270E-01  0.1268E-01  0.1983E-03  0.1975E-03  0.1983E-03  0.1975E-03  0.1983E-03  0.1975E-03  0.0000E+00  0.0000E+00  0.0000E+00  0.0000E+00  0.0000E+00  0.0000E+00  0.0000E+00  0.0000E+00  0.0000E+00  0.0000E+00
     -2.955  0.1247E-01  0.1247E-01  0.2159E-03  0.2155E-03  0.2159E-03  0.2155E-03  0.2159E-03  0.2155E-03  0.0000E+00  0.0000E+00  0.0000E+00  0.0000E+00  0.0000E+00  0.0000E+00  0.0000E+00  0.0000E+00  0.0000E+00  0.0000E+00
     -2.885  0.1335E-01  0.1328E-01  0.2614E-03  0.2596E-03  0.2614E-03  0.2596E-03  0.2614E-03  0.2596E-03  0.0000E+00  0.0000E+00  0.0000E+00  0.0000E+00  0.0000E+00  0.0000E+00  0.0000E+00  0.0000E+00  0.0000E+00  0.0000E+00
     -2.814  0.1601E-01  0.1596E-01  0.3399E-03  0.3385E-03  0.3399E-03  0.3385E-03  0.3399E-03  0.3385E-03  0.0000E+00  0.0000E+00  0.0000E+00  0.0000E+00  0.0000E+00  0.0000E+00  0.0000E+00  0.0000E+00  0.0000E+00  0.0000E+00
     -2.744  0.1646E-01  0.1645E-01  0.3747E-03  0.3741E-03  0.3747E-03  0.3741E-03  0.3747E-03  0.3741E-03  0.0000E+00  0.0000E+00  0.0000E+00  0.0000E+00  0.0000E+00  0.0000E+00  0.0000E+00  0.0000E+00  0.0000E+00  0.0000E+00
     -2.673  0.1598E-01  0.1598E-01  0.3903E-03  0.3901E-03  0.3903E-03  0.3901E-03  0.3903E-03  0.3901E-03  0.0000E+00  0.0000E+00  0.0000E+00  0.0000E+00  0.0000E+00  0.0000E+00  0.0000E+00  0.0000E+00  0.0000E+00  0.0000E+00
     -2.602  0.1405E-01  0.1408E-01  0.3683E-03  0.3687E-03  0.3683E-03  0.3687E-03  0.3683E-03  0.3687E-03  0.0000E+00  0.0000E+00  0.0000E+00  0.0000E+00  0.0000E+00  0.0000E+00  0.0000E+00  0.0000E+00  0.0000E+00  0.0000E+00
     -2.532  0.1398E-01  0.1391E-01  0.4025E-03  0.4000E-03  0.4025E-03  0.4000E-03  0.4025E-03  0.4000E-03  0.0000E+00  0.0000E+00  0.0000E+00  0.0000E+00  0.0000E+00  0.0000E+00  0.0000E+00  0.0000E+00  0.0000E+00  0.0000E+00
     -2.461  0.1797E-01  0.1786E-01  0.5538E-03  0.5502E-03  0.5538E-03  0.5502E-03  0.5538E-03  0.5502E-03  0.0000E+00  0.0000E+00  0.0000E+00  0.0000E+00  0.0000E+00  0.0000E+00  0.0000E+00  0.0000E+00  0.0000E+00  0.0000E+00
     -2.391  0.1995E-01  0.1993E-01  0.6427E-03  0.6420E-03  0.6427E-03  0.6420E-03  0.6427E-03  0.6420E-03  0.0000E+00  0.0000E+00  0.0000E+00  0.0000E+00  0.0000E+00  0.0000E+00  0.0000E+00  0.0000E+00  0.0000E+00  0.0000E+00
     -2.320  0.1930E-01  0.1928E-01  0.6566E-03  0.6556E-03  0.6566E-03  0.6556E-03  0.6566E-03  0.6556E-03  0.0000E+00  0.0000E+00  0.0000E+00  0.0000E+00  0.0000E+00  0.0000E+00  0.0000E+00  0.0000E+00  0.0000E+00  0.0000E+00
     -2.249  0.1879E-01  0.1882E-01  0.6710E-03  0.6717E-03  0.6710E-03  0.6717E-03  0.6710E-03  0.6717E-03  0.0000E+00  0.0000E+00  0.0000E+00  0.0000E+00  0.0000E+00  0.0000E+00  0.0000E+00  0.0000E+00  0.0000E+00  0.0000E+00
     -2.179  0.1599E-01  0.1602E-01  0.6024E-03  0.6028E-03  0.6024E-03  0.6028E-03  0.6024E-03  0.6028E-03  0.0000E+00  0.0000E+00  0.0000E+00  0.0000E+00  0.0000E+00  0.0000E+00  0.0000E+00  0.0000E+00  0.0000E+00  0.0000E+00
     -2.108  0.1701E-01  0.1692E-01  0.6844E-03  0.6804E-03  0.6844E-03  0.6804E-03  0.6844E-03  0.6804E-03  0.0000E+00  0.0000E+00  0.0000E+00  0.0000E+00  0.0000E+00  0.0000E+00  0.0000E+00  0.0000E+00  0.0000E+00  0.0000E+00
     -2.037  0.2018E-01  0.2012E-01  0.8476E-03  0.8449E-03  0.8476E-03  0.8449E-03  0.8476E-03  0.8449E-03  0.0000E+00  0.0000E+00  0.0000E+00  0.0000E+00  0.0000E+00  0.0000E+00  0.0000E+00  0.0000E+00  0.0000E+00  0.0000E+00
     -1.967  0.2035E-01  0.2035E-01  0.8900E-03  0.8897E-03  0.8900E-03  0.8897E-03  0.8900E-03  0.8897E-03  0.0000E+00  0.0000E+00  0.0000E+00  0.0000E+00  0.0000E+00  0.0000E+00  0.0000E+00  0.0000E+00  0.0000E+00  0.0000E+00
     -1.896  0.1962E-01  0.1960E-01  0.8997E-03  0.8987E-03  0.8997E-03  0.8987E-03  0.8997E-03  0.8987E-03  0.0000E+00  0.0000E+00  0.0000E+00  0.0000E+00  0.0000E+00  0.0000E+00  0.0000E+00  0.0000E+00  0.0000E+00  0.0000E+00
     -1.826  0.1944E-01  0.1941E-01  0.9337E-03  0.9321E-03  0.9337E-03  0.9321E-03  0.9337E-03  0.9321E-03  0.0000E+00  0.0000E+00  0.0000E+00  0.0000E+00  0.0000E+00  0.0000E+00  0.0000E+00  0.0000E+00  0.0000E+00  0.0000E+00
     -1.755  0.2152E-01  0.2142E-01  0.1082E-02  0.1077E-02  0.1082E-02  0.1077E-02  0.1082E-02  0.1077E-02  0.0000E+00  0.0000E+00  0.0000E+00  0.0000E+00  0.0000E+00  0.0000E+00  0.0000E+00  0.0000E+00  0.0000E+00  0.0000E+00
     -1.684  0.2397E-01  0.2395E-01  0.1241E-02  0.1241E-02  0.1241E-02  0.1241E-02  0.1241E-02  0.1241E-02  0.0000E+00  0.0000E+00  0.0000E+00  0.0000E+00  0.0000E+00  0.0000E+00  0.0000E+00  0.0000E+00  0.0000E+00  0.0000E+00
     -1.614  0.2185E-01  0.2188E-01  0.1169E-02  0.1170E-02  0.1169E-02  0.1170E-02  0.1169E-02  0.1170E-02  0.0000E+00  0.0000E+00  0.0000E+00  0.0000E+00  0.0000E+00  0.0000E+00  0.0000E+00  0.0000E+00  0.0000E+00  0.0000E+00
     -1.543  0.2078E-01  0.2077E-01  0.1156E-02  0.1156E-02  0.1156E-02  0.1156E-02  0.1156E-02  0.1156E-02  0.0000E+00  0.0000E+00  0.0000E+00  0.0000E+00  0.0000E+00  0.0000E+00  0.0000E+00  0.0000E+00  0.0000E+00  0.0000E+00
     -1.473  0.1870E-01  0.1875E-01  0.1076E-02  0.1079E-02  0.1076E-02  0.1079E-02  0.1076E-02  0.1079E-02  0.0000E+00  0.0000E+00  0.0000E+00  0.0000E+00  0.0000E+00  0.0000E+00  0.0000E+00  0.0000E+00  0.0000E+00  0.0000E+00
     -1.402  0.1679E-01  0.1675E-01  0.1013E-02  0.1010E-02  0.1013E-02  0.1010E-02  0.1013E-02  0.1010E-02  0.0000E+00  0.0000E+00  0.0000E+00  0.0000E+00  0.0000E+00  0.0000E+00  0.0000E+00  0.0000E+00  0.0000E+00  0.0000E+00
     -1.331  0.2135E-01  0.2120E-01  0.1345E-02  0.1335E-02  0.1345E-02  0.1335E-02  0.1345E-02  0.1335E-02  0.0000E+00  0.0000E+00  0.0000E+00  0.0000E+00  0.0000E+00  0.0000E+00  0.0000E+00  0.0000E+00  0.0000E+00  0.0000E+00
     -1.261  0.2552E-01  0.2546E-01  0.1651E-02  0.1647E-02  0.1651E-02  0.1647E-02  0.1651E-02  0.1647E-02  0.0000E+00  0.0000E+00  0.0000E+00  0.0000E+00  0.0000E+00  0.0000E+00  0.0000E+00  0.0000E+00  0.0000E+00  0.0000E+00
     -1.190  0.2621E-01  0.2616E-01  0.1749E-02  0.1746E-02  0.1749E-02  0.1746E-02  0.1749E-02  0.1746E-02  0.0000E+00  0.0000E+00  0.0000E+00  0.0000E+00  0.0000E+00  0.0000E+00  0.0000E+00  0.0000E+00  0.0000E+00  0.0000E+00
     -1.120  0.2657E-01  0.2657E-01  0.1823E-02  0.1824E-02  0.1823E-02  0.1824E-02  0.1823E-02  0.1824E-02  0.0000E+00  0.0000E+00  0.0000E+00  0.0000E+00  0.0000E+00  0.0000E+00  0.0000E+00  0.0000E+00  0.0000E+00  0.0000E+00