   4   4   1   0
  0.1413044E+02  0.3837707E-09  0.3837707E-09  0.3837707E-09  0.5000000E-15
  1.000000000000000E-004
  CAR 
 unknown system                          
     22.54986277     -3.72877225  301      9.68460247      1.00000000
     -3.729  0.0000E+00  0.0000E+00  0.0000E+00  0.0000E+00
     -3.641  0.0000E+00  0.0000E+00  0.0000E+00  0.0000E+00
     -3.554  0.0000E+00  0.0000E+00  0.0000E+00  0.0000E+00
     -3.466  0.0000E+00  0.0000E+00  0.0000E+00  0.0000E+00
     -3.378  0.0000E+00  0.0000E+00  0.0000E+00  0.0000E+00
     -3.291  0.0000E+00  0.0000E+00  0.0000E+00  0.0000E+00
     -3.203  0.0000E+00  0.0000E+00  0.0000E+00  0.0000E+00
     -3.116  0.0000E+00  0.0000E+00  0.0000E+00  0.0000E+00
     -3.028  0.0000E+00  0.0000E+00  0.0000E+00  0.0000E+00
     -2.940  0.4363E-05  0.4245E-05  0.3822E-06  0.3719E-06
     -2.853  0.3069E-04  0.2986E-04  0.3071E-05  0.2988E-05
     -2.765  0.1807E-03  0.1758E-03  0.1890E-04  0.1839E-04
     -2.678  0.1025E-02  0.9976E-03  0.1087E-03  0.1058E-03
     -2.590  0.5335E-02  0.5207E-02  0.5760E-03  0.5619E-03
     -2.502  0.2099E-01  0.2061E-01  0.2414E-02  0.2368E-02
     -2.415  0.4975E-01  0.4930E-01  0.6772E-02  0.6686E-02
     -2.327  0.7271E-01  0.7240E-01  0.1314E-01  0.1303E-01
     -2.240  0.1009E+00  0.1003E+00  0.2198E-01  0.2181E-01
     -2.152  0.1201E+00  0.1202E+00  0.3250E-01  0.3234E-01
     -2.064  0.1116E+00  0.1115E+00  0.4228E-01  0.4211E-01
     -1.977  0.1461E+00  0.1454E+00  0.5508E-01  0.5485E-01
     -1.889  0.1676E+00  0.1676E+00  0.6977E-01  0.6955E-01
     -1.802  0.1595E+00  0.1595E+00  0.8375E-01  0.8353E-01
     -1.714  0.1787E+00  0.1784E+00  0.9941E-01  0.9916E-01
     -1.626  0.1679E+00  0.1684E+00  0.1141E+00  0.1139E+00
     -1.539  0.1761E+00  0.1752E+00  0.1296E+00  0.1293E+00
     -1.451  0.2330E+00  0.2326E+00  0.1500E+00  0.1497E+00
     -1.364  0.2328E+00  0.2331E+00  0.1704E+00  0.1701E+00
     -1.276  0.2311E+00  0.2312E+00  0.1907E+00  0.1904E+00
     -1.189  0.1925E+00  0.1934E+00  0.2075E+00  0.2073E+00
     -1.101  0.1809E+00  0.1802E+00  0.2234E+00  0.2231E+00
     -1.013  0.2654E+00  0.2640E+00  0.2467E+00  0.2463E+00
     -0.926  0.2986E+00  0.2990E+00  0.2729E+00  0.2725E+00
     -0.838  0.2755E+00  0.2753E+00  0.2970E+00  0.2966E+00
     -0.751  0.2856E+00  0.2862E+00  0.3220E+00  0.3217E+00
     -0.663  0.2156E+00  0.2164E+00  0.3409E+00  0.3406E+00
     -0.575  0.2414E+00  0.2401E+00  0.3621E+00  0.3617E+00
     -0.488  0.3119E+00  0.3114E+00  0.3894E+00  0.3890E+00
     -0.400  0.3045E+00  0.3050E+00  0.4161E+00  0.4158E+00
     -0.313  0.2910E+00  0.2910E+00  0.4417E+00  0.4413E+00
     -0.225  0.2829E+00  0.2831E+00  0.4664E+00  0.4661E+00
     -0.137  0.3243E+00  0.3228E+00  0.4949E+00  0.4944E+00
     -0.050  0.3845E+00  0.3848E+00  0.5286E+00  0.5281E+00
      0.038  0.3246E+00  0.3254E+00  0.5570E+00  0.5566E+00
      0.125  0.3239E+00  0.3236E+00  0.5854E+00  0.5850E+00
      0.213  0.2850E+00  0.2864E+00  0.6104E+00  0.6101E+00
      0.301  0.2312E+00  0.2307E+00  0.6307E+00  0.6304E+00
      0.388  0.3459E+00  0.3437E+00  0.6610E+00  0.6605E+00
      0.476  0.4171E+00  0.4172E+00  0.6976E+00  0.6970E+00
      0.563  0.4145E+00  0.4140E+00  0.7339E+00  0.7333E+00
      0.651  0.4388E+00  0.4392E+00  0.7724E+00  0.7718E+00
      0.739  0.3557E+00  0.3570E+00  0.8035E+00  0.8031E+00
      0.826  0.3240E+00  0.3240E+00  0.8320E+00  0.8315E+00
      0.914  0.3300E+00  0.3299E+00  0.8609E+00  0.8604E+00
      1.001  0.3454E+00  0.3449E+00  0.8912E+00  0.8907E+00
      1.089  0.4016E+00  0.4010E+00  0.9264E+00  0.9258E+00
      1.177  0.3582E+00  0.3595E+00  0.9578E+00  0.9574E+00
      1.264  0.3794E+00  0.3776E+00  0.9911E+00  0.9904E+00
      1.352  0.4910E+00  0.4906E+00  0.1034E+01  0.1033E+01
      1.439  0.4571E+00  0.4576E+00  0.1074E+01  0.1074E+01
      1.527  0.4480E+00  0.4485E+00  0.1113E+01  0.1113E+01
      1.615  0.3540E+00  0.3557E+00  0.1144E+01  0.1144E+01
      1.702  0.3378E+00  0.3363E+00  0.1174E+01  0.1174E+01
      1.790  0.4826E+00  0.4806E+00  0.1216E+01  0.1216E+01
      1.877  0.5078E+00  0.5088E+00  0.1261E+01  0.1260E+01
      1.965  0.4514E+00  0.4519E+00  0.1301E+01  0.1300E+01
      2.053  0.3747E+00  0.3764E+00  0.1333E+01  0.1333E+01
      2.140  0.3306E+00  0.3297E+00  0.1362E+01  0.1362E+01
      2.228  0.4487E+00  0.4472E+00  0.1402E+01  0.1401E+01
      2.315  0.4870E+00  0.4871E+00  0.1444E+01  0.1444E+01
      2.403  0.4816E+00  0.4815E+00  0.1487E+01  0.1486E+01
      2.491  0.4929E+00  0.4932E+00  0.1530E+01  0.1529E+01
      2.578  0.4657E+00  0.4652E+00  0.1571E+01  0.1570E+01
      2.666  0.6139E+00  0.6114E+00  0.1624E+01  0.1624E+01
      2.753  0.6075E+00  0.6102E+00  0.1678E+01  0.1677E+01
      2.841  0.4039E+00  0.4058E+00  0.1713E+01  0.1713E+01
      2.928  0.3760E+00  0.3759E+00  0.1746E+01  0.1746E+01
      3.016  0.3373E+00  0.3379E+00  0.1776E+01  0.1775E+01
      3.104  0.3893E+00  0.3871E+00  0.1810E+01  0.1809E+01
      3.191  0.5491E+00  0.5475E+00  0.1858E+01  0.1857E+01
      3.279  0.6120E+00  0.6113E+00  0.1912E+01  0.1911E+01
      3.366  0.6230E+00  0.6242E+00  0.1966E+01  0.1965E+01
      3.454  0.4881E+00  0.4894E+00  0.2009E+01  0.2008E+01
      3.542  0.5264E+00  0.5250E+00  0.2055E+01  0.2054E+01
      3.629  0.5740E+00  0.5743E+00  0.2105E+01  0.2105E+01
      3.717  0.5413E+00  0.5416E+00  0.2153E+01  0.2152E+01
      3.804  0.5664E+00  0.5661E+00  0.2203E+01  0.2202E+01
      3.892  0.4834E+00  0.4857E+00  0.2245E+01  0.2244E+01
      3.980  0.4268E+00  0.4255E+00  0.2282E+01  0.2282E+01
      4.067  0.5631E+00  0.5618E+00  0.2332E+01  0.2331E+01
      4.155  0.6036E+00  0.6033E+00  0.2385E+01  0.2384E+01
      4.242  0.6152E+00  0.6157E+00  0.2439E+01  0.2438E+01
      4.330  0.5239E+00  0.5255E+00  0.2485E+01  0.2484E+01
      4.418  0.5282E+00  0.5271E+00  0.2531E+01  0.2530E+01
      4.505  0.6239E+00  0.6238E+00  0.2586E+01  0.2585E+01
      4.593  0.5752E+00  0.5757E+00  0.2636E+01  0.2635E+01
      4.680  0.6241E+00  0.6228E+00  0.2691E+01  0.2690E+01
      4.768  0.6085E+00  0.6100E+00  0.2744E+01  0.2743E+01
      4.856  0.5583E+00  0.5578E+00  0.2793E+01  0.2792E+01
      4.943  0.6427E+00  0.6418E+00  0.2849E+01  0.2849E+01
      5.031  0.6601E+00  0.6608E+00  0.2907E+01  0.2906E+01
      5.118  0.5686E+00  0.5694E+00  0.2957E+01  0.2956E+01
      5.206  0.5031E+00  0.5038E+00  0.3001E+01  0.3001E+01
      5.294  0.5130E+00  0.5114E+00  0.3046E+01  0.3045E+01
      5.381  0.6329E+00  0.6321E+00  0.3102E+01  0.3101E+01
      5.469  0.6159E+00  0.6164E+00  0.3156E+01  0.3155E+01
      5.556  0.5143E+00  0.5158E+00  0.3201E+01  0.3200E+01
      5.644  0.4095E+00  0.4104E+00  0.3237E+01  0.3236E+01
      5.732  0.5246E+00  0.5217E+00  0.3283E+01  0.3282E+01
      5.819  0.7530E+00  0.7508E+00  0.3349E+01  0.3348E+01
      5.907  0.7910E+00  0.7919E+00  0.3418E+01  0.3417E+01
      5.994  0.7384E+00  0.7380E+00  0.3483E+01  0.3482E+01
      6.082  0.7503E+00  0.7510E+00  0.3548E+01  0.3548E+01
      6.170  0.6783E+00  0.6801E+00  0.3608E+01  0.3607E+01
      6.257  0.5543E+00  0.5543E+00  0.3657E+01  0.3656E+01
      6.345  0.5789E+00  0.5772E+00  0.3707E+01  0.3706E+01
      6.432  0.6631E+00  0.6629E+00  0.3765E+01  0.3765E+01
      6.520  0.6747E+00  0.6768E+00  0.3825E+01  0.3824E+01
      6.607  0.6193E+00  0.6195E+00  0.3879E+01  0.3878E+01
      6.695  0.6811E+00  0.6789E+00  0.3939E+01  0.3938E+01
      6.783  0.7576E+00  0.7570E+00  0.4005E+01  0.4004E+01
      6.870  0.6846E+00  0.6859E+00  0.4065E+01  0.4064E+01
      6.958  0.7015E+00  0.7006E+00  0.4127E+01  0.4126E+01
      7.045  0.7992E+00  0.7982E+00  0.4197E+01  0.4196E+01
      7.133  0.7629E+00  0.7647E+00  0.4263E+01  0.4263E+01
      7.221  0.5947E+00  0.5957E+00  0.4316E+01  0.4315E+01
      7.308  0.5413E+00  0.5412E+00  0.4363E+01  0.4362E+01
      7.396  0.5913E+00  0.5904E+00  0.4415E+01  0.4414E+01
      7.483  0.6259E+00  0.6264E+00  0.4470E+01  0.4469E+01
      7.571  0.6085E+00  0.6093E+00  0.4523E+01  0.4523E+01
      7.659  0.5948E+00  0.5945E+00  0.4575E+01  0.4575E+01
      7.746  0.6200E+00  0.6192E+00  0.4630E+01  0.4629E+01
      7.834  0.7351E+00  0.7336E+00  0.4694E+01  0.4693E+01
      7.921  0.7561E+00  0.7572E+00  0.4760E+01  0.4760E+01
      8.009  0.6600E+00  0.6595E+00  0.4818E+01  0.4817E+01
      8.097  0.7052E+00  0.7043E+00  0.4880E+01  0.4879E+01
      8.184  0.6650E+00  0.6659E+00  0.4938E+01  0.4938E+01
      8.272  0.6551E+00  0.6548E+00  0.4996E+01  0.4995E+01
      8.359  0.6494E+00  0.6502E+00  0.5053E+01  0.5052E+01
      8.447  0.7026E+00  0.7018E+00  0.5114E+01  0.5114E+01
      8.535  0.8561E+00  0.8540E+00  0.5189E+01  0.5188E+01
      8.622  0.7818E+00  0.7852E+00  0.5258E+01  0.5257E+01
      8.710  0.5585E+00  0.5600E+00  0.5307E+01  0.5306E+01
      8.797  0.6355E+00  0.6334E+00  0.5363E+01  0.5362E+01
      8.885  0.7464E+00  0.7464E+00  0.5428E+01  0.5427E+01
      8.973  0.6091E+00  0.6104E+00  0.5482E+01  0.5481E+01
      9.060  0.6387E+00  0.6377E+00  0.5538E+01  0.5537E+01
      9.148  0.7973E+00  0.7950E+00  0.5607E+01  0.5606E+01
      9.235  0.8454E+00  0.8460E+00  0.5682E+01  0.5681E+01
      9.323  0.7738E+00  0.7736E+00  0.5749E+01  0.5749E+01
      9.411  0.7999E+00  0.7999E+00  0.5820E+01  0.5819E+01
      9.498  0.6425E+00  0.6453E+00  0.5876E+01  0.5875E+01
      9.586  0.6250E+00  0.6238E+00  0.5931E+01  0.5930E+01
      9.673  0.7041E+00  0.7024E+00  0.5993E+01  0.5992E+01
      9.761  0.6932E+00  0.6932E+00  0.6053E+01  0.6052E+01
      9.849  0.6168E+00  0.6196E+00  0.6107E+01  0.6107E+01
      9.936  0.5548E+00  0.5558E+00  0.6156E+01  0.6155E+01
     10.024  0.5954E+00  0.5949E+00  0.6208E+01  0.6208E+01
     10.111  0.5651E+00  0.5646E+00  0.6258E+01  0.6257E+01
     10.199  0.6274E+00  0.6230E+00  0.6313E+01  0.6312E+01
     10.286  0.8522E+00  0.8492E+00  0.6388E+01  0.6386E+01
     10.374  0.9891E+00  0.9869E+00  0.6474E+01  0.6473E+01
     10.462  0.1032E+01  0.1032E+01  0.6565E+01  0.6563E+01
     10.549  0.9390E+00  0.9413E+00  0.6647E+01  0.6646E+01
     10.637  0.8125E+00  0.8137E+00  0.6718E+01  0.6717E+01
     10.724  0.8670E+00  0.8685E+00  0.6794E+01  0.6793E+01
     10.812  0.7856E+00  0.7880E+00  0.6863E+01  0.6862E+01
     10.900  0.7265E+00  0.7262E+00  0.6927E+01  0.6926E+01
     10.987  0.6661E+00  0.6679E+00  0.6985E+01  0.6984E+01
     11.075  0.5516E+00  0.5517E+00  0.7034E+01  0.7033E+01
     11.162  0.6288E+00  0.6269E+00  0.7089E+01  0.7088E+01
     11.250  0.7273E+00  0.7266E+00  0.7153E+01  0.7152E+01
     11.338  0.7946E+00  0.7909E+00  0.7222E+01  0.7221E+01
     11.425  0.8661E+00  0.8663E+00  0.7298E+01  0.7297E+01
     11.513  0.8692E+00  0.8690E+00  0.7374E+01  0.7373E+01
     11.600  0.9285E+00  0.9281E+00  0.7456E+01  0.7454E+01
     11.688  0.7720E+00  0.7771E+00  0.7523E+01  0.7522E+01
     11.776  0.5481E+00  0.5491E+00  0.7571E+01  0.7571E+01
     11.863  0.6523E+00  0.6484E+00  0.7629E+01  0.7627E+01
     11.951  0.7957E+00  0.7944E+00  0.7698E+01  0.7697E+01
     12.038  0.7584E+00  0.7597E+00  0.7765E+01  0.7764E+01
     12.126  0.6822E+00  0.6819E+00  0.7825E+01  0.7824E+01
     12.214  0.6881E+00  0.6885E+00  0.7885E+01  0.7884E+01
     12.301  0.7806E+00  0.7752E+00  0.7953E+01  0.7952E+01
     12.389  0.1010E+01  0.1005E+01  0.8042E+01  0.8040E+01
     12.476  0.1090E+01  0.1092E+01  0.8138E+01  0.8136E+01
     12.564  0.8464E+00  0.8518E+00  0.8212E+01  0.8210E+01
     12.652  0.7808E+00  0.7839E+00  0.8280E+01  0.8279E+01
     12.739  0.7638E+00  0.7664E+00  0.8347E+01  0.8346E+01
     12.827  0.6505E+00  0.6495E+00  0.8404E+01  0.8403E+01
     12.914  0.7572E+00  0.7512E+00  0.8471E+01  0.8469E+01
     13.002  0.8979E+00  0.8940E+00  0.8549E+01  0.8547E+01
     13.090  0.8631E+00  0.8630E+00  0.8625E+01  0.8623E+01
     13.177  0.7980E+00  0.7988E+00  0.8695E+01  0.8693E+01
     13.265  0.7692E+00  0.7711E+00  0.8762E+01  0.8761E+01
     13.352  0.8789E+00  0.8772E+00  0.8840E+01  0.8838E+01
     13.440  0.1008E+01  0.1010E+01  0.8928E+01  0.8926E+01
     13.528  0.8691E+00  0.8738E+00  0.9004E+01  0.9003E+01
     13.615  0.6754E+00  0.6769E+00  0.9063E+01  0.9062E+01
     13.703  0.6179E+00  0.6155E+00  0.9118E+01  0.9116E+01
     13.790  0.7786E+00  0.7749E+00  0.9186E+01  0.9184E+01
     13.878  0.8919E+00  0.8876E+00  0.9264E+01  0.9262E+01
     13.966  0.1023E+01  0.1017E+01  0.9354E+01  0.9351E+01
     14.053  0.1017E+01  0.1020E+01  0.9443E+01  0.9440E+01
     14.141  0.7938E+00  0.8037E+00  0.9512E+01  0.9511E+01
     14.228  0.7739E+00  0.7722E+00  0.9580E+01  0.9579E+01
     14.316  0.8798E+00  0.8784E+00  0.9657E+01  0.9656E+01
     14.403  0.9723E+00  0.9687E+00  0.9743E+01  0.9741E+01
     14.491  0.1087E+01  0.1079E+01  0.9838E+01  0.9835E+01
     14.579  0.1227E+01  0.1227E+01  0.9945E+01  0.9943E+01
     14.666  0.9976E+00  0.1009E+01  0.1003E+02  0.1003E+02
     14.754  0.7088E+00  0.7122E+00  0.1010E+02  0.1009E+02
     14.841  0.7260E+00  0.7241E+00  0.1016E+02  0.1016E+02
     14.929  0.8064E+00  0.8025E+00  0.1023E+02  0.1023E+02
     15.017  0.7092E+00  0.7135E+00  0.1029E+02  0.1029E+02
     15.104  0.6073E+00  0.6047E+00  0.1035E+02  0.1034E+02
     15.192  0.8150E+00  0.8082E+00  0.1042E+02  0.1041E+02
     15.279  0.1018E+01  0.1017E+01  0.1051E+02  0.1050E+02
     15.367  0.1037E+01  0.1040E+01  0.1060E+02  0.1059E+02
     15.455  0.1022E+01  0.1027E+01  0.1069E+02  0.1068E+02
     15.542  0.9485E+00  0.9524E+00  0.1077E+02  0.1077E+02
     15.630  0.8539E+00  0.8484E+00  0.1084E+02  0.1084E+02
     15.717  0.8202E+00  0.8202E+00  0.1092E+02  0.1091E+02
     15.805  0.6350E+00  0.6390E+00  0.1097E+02  0.1097E+02
     15.893  0.5456E+00  0.5451E+00  0.1102E+02  0.1102E+02
     15.980  0.6458E+00  0.6269E+00  0.1108E+02  0.1107E+02
     16.068  0.8684E+00  0.8552E+00  0.1115E+02  0.1115E+02
     16.155  0.8089E+00  0.8286E+00  0.1122E+02  0.1122E+02
     16.243  0.4978E+00  0.5153E+00  0.1127E+02  0.1127E+02
     16.331  0.3027E+00  0.3105E+00  0.1129E+02  0.1129E+02
     16.418  0.2995E+00  0.3006E+00  0.1132E+02  0.1132E+02
     16.506  0.2757E+00  0.2765E+00  0.1134E+02  0.1134E+02
     16.593  0.2929E+00  0.2914E+00  0.1137E+02  0.1137E+02
     16.681  0.3954E+00  0.3913E+00  0.1140E+02  0.1140E+02
     16.769  0.5580E+00  0.5545E+00  0.1145E+02  0.1145E+02
     16.856  0.5122E+00  0.5160E+00  0.1150E+02  0.1150E+02
     16.944  0.3005E+00  0.3059E+00  0.1152E+02  0.1152E+02
     17.031  0.2086E+00  0.2104E+00  0.1154E+02  0.1154E+02
     17.119  0.1821E+00  0.1820E+00  0.1156E+02  0.1156E+02
     17.207  0.1993E+00  0.1981E+00  0.1158E+02  0.1158E+02
     17.294  0.2005E+00  0.2004E+00  0.1159E+02  0.1159E+02
     17.382  0.2135E+00  0.2130E+00  0.1161E+02  0.1161E+02
     17.469  0.3223E+00  0.3209E+00  0.1164E+02  0.1164E+02
     17.557  0.2599E+00  0.2641E+00  0.1166E+02  0.1166E+02
     17.645  0.1656E+00  0.1664E+00  0.1168E+02  0.1168E+02
     17.732  0.2669E+00  0.2623E+00  0.1170E+02  0.1170E+02
     17.820  0.3160E+00  0.3165E+00  0.1173E+02  0.1173E+02
     17.907  0.1987E+00  0.2016E+00  0.1175E+02  0.1175E+02
     17.995  0.1042E+00  0.1059E+00  0.1176E+02  0.1176E+02
     18.082  0.6569E-01  0.6821E-01  0.1176E+02  0.1176E+02
     18.170  0.1061E+00  0.1075E+00  0.1177E+02  0.1177E+02
     18.258  0.1617E+00  0.1591E+00  0.1179E+02  0.1179E+02
     18.345  0.1554E+00  0.1527E+00  0.1180E+02  0.1180E+02
     18.433  0.1861E+00  0.1853E+00  0.1182E+02  0.1181E+02
     18.520  0.1189E+00  0.1215E+00  0.1183E+02  0.1183E+02
     18.608  0.3933E-01  0.4033E-01  0.1183E+02  0.1183E+02
     18.696  0.4331E-01  0.4211E-01  0.1183E+02  0.1183E+02
     18.783  0.1432E+00  0.1394E+00  0.1185E+02  0.1184E+02
     18.871  0.2502E+00  0.2462E+00  0.1187E+02  0.1187E+02
     18.958  0.1862E+00  0.1691E+00  0.1188E+02  0.1188E+02
     19.046  0.1631E+00  0.1203E+00  0.1190E+02  0.1189E+02
     19.134  0.1450E+00  0.1580E+00  0.1191E+02  0.1191E+02
     19.221  0.5205E-01  0.9255E-01  0.1192E+02  0.1191E+02
     19.309  0.1302E-01  0.2591E-01  0.1192E+02  0.1192E+02
     19.396  0.1403E-01  0.1613E-01  0.1192E+02  0.1192E+02
     19.484  0.4071E-01  0.4049E-01  0.1192E+02  0.1192E+02
     19.572  0.5325E-01  0.5332E-01  0.1193E+02  0.1193E+02
     19.659  0.4750E-01  0.4613E-01  0.1193E+02  0.1193E+02
     19.747  0.9890E-01  0.9574E-01  0.1194E+02  0.1194E+02
     19.834  0.1135E+00  0.1157E+00  0.1195E+02  0.1195E+02
     19.922  0.6163E-01  0.6352E-01  0.1195E+02  0.1195E+02
     20.010  0.8188E-01  0.8100E-01  0.1196E+02  0.1196E+02
     20.097  0.1001E+00  0.1009E+00  0.1197E+02  0.1197E+02
     20.185  0.4129E-01  0.4261E-01  0.1197E+02  0.1197E+02
     20.272  0.8988E-02  0.9370E-02  0.1197E+02  0.1197E+02
     20.360  0.1651E-02  0.1767E-02  0.1197E+02  0.1197E+02
     20.448  0.1101E-03  0.3963E-03  0.1197E+02  0.1197E+02
     20.535  0.6308E-03  0.2237E-02  0.1197E+02  0.1197E+02
     20.623  0.3516E-02  0.1147E-01  0.1197E+02  0.1198E+02
     20.710  0.1694E-01  0.3888E-01  0.1198E+02  0.1198E+02
     20.798  0.4641E-01  0.4807E-01  0.1198E+02  0.1198E+02
     20.886  0.4165E-01  0.1925E-01  0.1198E+02  0.1199E+02
     20.973  0.1537E-01  0.6529E-02  0.1199E+02  0.1199E+02
     21.061  0.1521E-01  0.1349E-01  0.1199E+02  0.1199E+02
     21.148  0.4142E-01  0.4111E-01  0.1199E+02  0.1199E+02
     21.236  0.4959E-01  0.4928E-01  0.1199E+02  0.1199E+02
     21.324  0.2885E-01  0.2837E-01  0.1200E+02  0.1200E+02
     21.411  0.2053E-01  0.2060E-01  0.1200E+02  0.1200E+02
     21.499  0.8380E-02  0.8691E-02  0.1200E+02  0.1200E+02
     21.586  0.1736E-02  0.1831E-02  0.1200E+02  0.1200E+02
     21.674  0.3168E-03  0.3351E-03  0.1200E+02  0.1200E+02
     21.762  0.0000E+00  0.0000E+00  0.1200E+02  0.1200E+02
     21.849  0.0000E+00  0.0000E+00  0.1200E+02  0.1200E+02
     21.937  0.0000E+00  0.0000E+00  0.1200E+02  0.1200E+02
     22.024  0.0000E+00  0.0000E+00  0.1200E+02  0.1200E+02
     22.112  0.0000E+00  0.0000E+00  0.1200E+02  0.1200E+02
     22.199  0.0000E+00  0.0000E+00  0.1200E+02  0.1200E+02
     22.287  0.0000E+00  0.0000E+00  0.1200E+02  0.1200E+02
     22.375  0.0000E+00  0.0000E+00  0.1200E+02  0.1200E+02
     22.462  0.0000E+00  0.0000E+00  0.1200E+02  0.1200E+02
     22.550  0.0000E+00  0.0000E+00  0.1200E+02  0.1200E+02
     22.54986277     -3.72877225  301      9.68460247      1.00000000
     -3.729  0.0000E+00  0.0000E+00  0.0000E+00  0.0000E+00  0.0000E+00  0.0000E+00  0.0000E+00  0.0000E+00  0.0000E+00  0.0000E+00  0.0000E+00  0.0000E+00  0.0000E+00  0.0000E+00  0.0000E+00  0.0000E+00  0.0000E+00  0.0000E+00
     -3.641  0.0000E+00  0.0000E+00  0.0000E+00  0.0000E+00  0.0000E+00  0.0000E+00  0.0000E+00  0.0000E+00  0.0000E+00  0.0000E+00  0.0000E+00  0.0000E+00  0.0000E+00  0.0000E+00  0.0000E+00  0.0000E+00  0.0000E+00  0.0000E+00
     -3.554  0.0000E+00  0.0000E+00  0.0000E+00  0.0000E+00  0.0000E+00  0.0000E+00  0.0000E+00  0.0000E+00  0.0000E+00  0.0000E+00  0.0000E+00  0.0000E+00  0.0000E+00  0.0000E+00  0.0000E+00  0.0000E+00  0.0000E+00  0.0000E+00
     -3.466  0.0000E+00  0.0000E+00  0.0000E+00  0.0000E+00  0.0000E+00  0.0000E+00  0.0000E+00  0.0000E+00  0.0000E+00  0.0000E+00  0.0000E+00  0.0000E+00  0.0000E+00  0.0000E+00  0.0000E+00  0.0000E+00  0.0000E+00  0.0000E+00
     -3.378  0.0000E+00  0.0000E+00  0.0000E+00  0.0000E+00  0.0000E+00  0.0000E+00  0.0000E+00  0.0000E+00  0.0000E+00  0.0000E+00  0.0000E+00  0.0000E+00  0.0000E+00  0.0000E+00  0.0000E+00  0.0000E+00  0.0000E+00  0.0000E+00
     -3.291  0.0000E+00  0.0000E+00  0.0000E+00  0.0000E+00  0.0000E+00  0.0000E+00  0.0000E+00  0.0000E+00  0.0000E+00  0.0000E+00  0.0000E+00  0.0000E+00  0.0000E+00  0.0000E+00  0.0000E+00  0.0000E+00  0.0000E+00  0.0000E+00
     -3.203  0.0000E+00  0.0000E+00  0.0000E+00  0.0000E+00  0.0000E+00  0.0000E+00  0.0000E+00  0.0000E+00  0.0000E+00  0.0000E+00  0.0000E+00  0.0000E+00  0.0000E+00  0.0000E+00  0.0000E+00  0.0000E+00  0.0000E+00  0.0000E+00
     -3.116  0.0000E+00  0.0000E+00  0.0000E+00  0.0000E+00  0.0000E+00  0.0000E+00  0.0000E+00  0.0000E+00  0.0000E+00  0.0000E+00  0.0000E+00  0.0000E+00  0.0000E+00  0.0000E+00  0.0000E+00  0.0000E+00  0.0000E+00  0.0000E+00
     -3.028  0.0000E+00  0.0000E+00  0.0000E+00  0.0000E+00  0.0000E+00  0.0000E+00  0.0000E+00  0.0000E+00  0.0000E+00  0.0000E+00  0.0000E+00  0.0000E+00  0.0000E+00  0.0000E+00  0.0000E+00  0.0000E+00  0.0000E+00  0.0000E+00
     -2.940  0.3270E-06  0.3179E-06  0.3258E-09  0.3169E-09  0.3258E-09  0.3169E-09  0.3258E-09  0.3169E-09  0.0000E+00  0.0000E+00  0.0000E+00  0.0000E+00  0.0000E+00  0.0000E+00  0.0000E+00  0.0000E+00  0.0000E+00  0.0000E+00
     -2.853  0.2295E-05  0.2232E-05  0.3839E-08  0.3734E-08  0.3839E-08  0.3734E-08  0.3839E-08  0.3734E-08  0.0000E+00  0.0000E+00  0.0000E+00  0.0000E+00  0.0000E+00  0.0000E+00  0.0000E+00  0.0000E+00  0.0000E+00  0.0000E+00
     -2.765  0.1350E-04  0.1313E-04  0.2505E-07  0.2437E-07  0.2505E-07  0.2437E-07  0.2505E-07  0.2437E-07  0.0000E+00  0.0000E+00  0.0000E+00  0.0000E+00  0.0000E+00  0.0000E+00  0.0000E+00  0.0000E+00  0.0000E+00  0.0000E+00
     -2.678  0.7657E-04  0.7450E-04  0.1488E-06  0.1447E-06  0.1488E-06  0.1447E-06  0.1488E-06  0.1447E-06  0.0000E+00  0.0000E+00  0.0000E+00  0.0000E+00  0.0000E+00  0.0000E+00  0.0000E+00  0.0000E+00  0.0000E+00  0.0000E+00
     -2.590  0.3985E-03  0.3887E-03  0.8325E-06  0.8109E-06  0.8325E-06  0.8109E-06  0.8325E-06  0.8109E-06  0.0000E+00  0.0000E+00  0.0000E+00  0.0000E+00  0.0000E+00  0.0000E+00  0.0000E+00  0.0000E+00  0.0000E+00  0.0000E+00
     -2.502  0.1566E-02  0.1537E-02  0.3913E-05  0.3828E-05  0.3913E-05  0.3828E-05  0.3913E-05  0.3828E-05  0.0000E+00  0.0000E+00  0.0000E+00  0.0000E+00  0.0000E+00  0.0000E+00  0.0000E+00  0.0000E+00  0.0000E+00  0.0000E+00
     -2.415  0.3702E-02  0.3666E-02  0.1256E-04  0.1238E-04  0.1256E-04  0.1238E-04  0.1256E-04  0.1238E-04  0.0000E+00  0.0000E+00  0.0000E+00  0.0000E+00  0.0000E+00  0.0000E+00  0.0000E+00  0.0000E+00  0.0000E+00  0.0000E+00
     -2.327  0.5383E-02  0.5357E-02  0.2740E-04  0.2709E-04  0.2740E-04  0.2709E-04  0.2740E-04  0.2709E-04  0.0000E+00  0.0000E+00  0.0000E+00  0.0000E+00  0.0000E+00  0.0000E+00  0.0000E+00  0.0000E+00  0.0000E+00  0.0000E+00
     -2.240  0.7417E-02  0.7372E-02  0.5442E-04  0.5390E-04  0.5442E-04  0.5390E-04  0.5442E-04  0.5390E-04  0.0000E+00  0.0000E+00  0.0000E+00  0.0000E+00  0.0000E+00  0.0000E+00  0.0000E+00  0.0000E+00  0.0000E+00  0.0000E+00
     -2.152  0.8790E-02  0.8789E-02  0.7889E-04  0.7868E-04  0.7889E-04  0.7868E-04  0.7889E-04  0.7868E-04  0.0000E+00  0.0000E+00  0.0000E+00  0.0000E+00  0.0000E+00  0.0000E+00  0.0000E+00  0.0000E+00  0.0000E+00  0.0000E+00
     -2.064  0.8104E-02  0.8090E-02  0.9383E-04  0.9328E-04  0.9383E-04  0.9328E-04  0.9383E-04  0.9328E-04  0.0000E+00  0.0000E+00  0.0000E+00  0.0000E+00  0.0000E+00  0.0000E+00  0.0000E+00  0.0000E+00  0.0000E+00  0.0000E+00
     -1.977  0.1053E-01  0.1047E-01  0.1507E-03  0.1497E-03  0.1507E-03  0.1497E-03  0.1507E-03  0.1497E-03  0.0000E+00  0.0000E+00  0.0000E+00  0.0000E+00  0.0000E+00  0.0000E+00  0.0000E+00  0.0000E+00  0.0000E+00  0.0000E+00
     -1.889  0.1201E-01  0.1201E-01  0.1941E-03  0.1938E-03  0.1941E-03  0.1938E-03  0.1941E-03  0.1938E-03  0.0000E+00  0.0000E+00  0.0000E+00  0.0000E+00  0.0000E+00  0.0000E+00  0.0000E+00  0.0000E+00  0.0000E+00  0.0000E+00
     -1.802  0.1135E-01  0.1134E-01  0.2112E-03  0.2106E-03  0.2112E-03  0.2106E-03  0.2112E-03  0.2106E-03  0.0000E+00  0.0000E+00  0.0000E+00  0.0000E+00  0.0000E+00  0.0000E+00  0.0000E+00  0.0000E+00  0.0000E+00  0.0000E+00
     -1.714  0.1262E-01  0.1259E-01  0.2676E-03  0.2667E-03  0.2676E-03  0.2667E-03  0.2676E-03  0.2667E-03  0.0000E+00  0.0000E+00  0.0000E+00  0.0000E+00  0.0000E+00  0.0000E+00  0.0000E+00  0.0000E+00  0.0000E+00  0.0000E+00
     -1.626  0.1179E-01  0.1182E-01  0.2742E-03  0.2745E-03  0.2742E-03  0.2745E-03  0.2742E-03  0.2745E-03  0.0000E+00  0.0000E+00  0.0000E+00  0.0000E+00  0.0000E+00  0.0000E+00  0.0000E+00  0.0000E+00  0.0000E+00  0.0000E+00
     -1.539  0.1224E-01  0.1217E-01  0.3273E-03  0.3250E-03  0.3273E-03  0.3250E-03  0.3273E-03  0.3250E-03  0.0000E+00  0.0000E+00  0.0000E+00  0.0000E+00  0.0000E+00  0.0000E+00  0.0000E+00  0.0000E+00  0.0000E+00  0.0000E+00
     -1.451  0.1610E-01  0.1606E-01  0.4652E-03  0.4638E-03  0.4652E-03  0.4638E-03  0.4652E-03  0.4638E-03  0.0000E+00  0.0000E+00  0.0000E+00  0.0000E+00  0.0000E+00  0.0000E+00  0.0000E+00  0.0000E+00  0.0000E+00  0.0000E+00
     -1.364  0.1598E-01  0.1599E-01  0.4969E-03  0.4967E-03  0.4969E-03  0.4967E-03  0.4969E-03  0.4967E-03  0.0000E+00  0.0000E+00  0.0000E+00  0.0000E+00  0.0000E+00  0.0000E+00  0.0000E+00  0.0000E+00  0.0000E+00  0.0000E+00
     -1.276  0.1576E-01  0.1575E-01  0.5289E-03  0.5286E-03  0.5289E-03  0.5286E-03  0.5289E-03  0.5286E-03  0.0000E+00  0.0000E+00  0.0000E+00  0.0000E+00  0.0000E+00  0.0000E+00  0.0000E+00  0.0000E+00  0.0000E+00  0.0000E+00
     -1.189  0.1304E-01  0.1309E-01  0.4668E-03  0.4682E-03  0.4668E-03  0.4682E-03  0.4668E-03  0.4682E-03  0.0000E+00  0.0000E+00  0.0000E+00  0.0000E+00  0.0000E+00  0.0000E+00  0.0000E+00  0.0000E+00  0.0000E+00  0.0000E+00
     -1.101  0.1212E-01  0.1206E-01  0.4810E-03  0.4783E-03  0.4810E-03  0.4783E-03  0.4810E-03  0.4783E-03  0.0000E+00  0.0000E+00  0.0000E+00  0.0000E+00  0.0000E+00  0.0000E+00  0.0000E+00  0.0000E+00  0.0000E+00  0.0000E+00
     -1.013  0.1765E-01  0.1754E-01  0.7504E-03  0.7458E-03  0.7504E-03  0.7458E-03  0.7504E-03  0.7458E-03  0.0000E+00  0.0000E+00  0.0000E+00  0.0000E+00  0.0000E+00  0.0000E+00  0.0000E+00  0.0000E+00  0.0000E+00  0.0000E+00
     -0.926  0.1975E-01  0.1976E-01  0.8761E-03  0.8765E-03  0.8761E-03  0.8765E-03  0.8761E-03  0.8765E-03  0.0000E+00  0.0000E+00  0.0000E+00  0.0000E+00  0.0000E+00  0.0000E+00  0.0000E+00  0.0000E+00  0.0000E+00  0.0000E+00
     -0.838  0.1808E-01  0.1805E-01  0.8540E-03  0.8524E-03  0.8540E-03  0.8524E-03  0.8540E-03  0.8524E-03  0.0000E+00  0.0000E+00  0.0000E+00  0.0000E+00  0.0000E+00  0.0000E+00  0.0000E+00  0.0000E+00  0.0000E+00  0.0000E+00
     -0.751  0.1862E-01  0.1864E-01  0.9239E-03  0.9250E-03  0.9239E-03  0.9250E-03  0.9239E-03  0.9250E-03  0.0000E+00  0.0000E+00  0.0000E+00  0.0000E+00  0.0000E+00  0.0000E+00  0.0000E+00  0.0000E+00  0.0000E+00  0.0000E+00
     -0.663  0.1395E-01  0.1399E-01  0.7295E-03  0.7312E-03  0.7295E-03  0.7312E-03  0.7295E-03  0.7312E-03  0.0000E+00  0.0000E+00  0.0000E+00  0.0000E+00  0.0000E+00  0.0000E+00  0.0000E+00  0.0000E+00  0.0000E+00  0.0000E+00
     -0.575  0.1545E-01  0.1535E-01  0.8714E-03  0.8659E-03  0.8714E-03  0.8659E-03  0.8714E-03  0.8659E-03  0.0000E+00  0.0000E+00  0.0000E+00  0.0000E+00  0.0000E+00  0.0000E+00  0.0000E+00  0.0000E+00  0.0000E+00  0.0000E+00
     -0.488  0.1983E-01  0.1979E-01  0.1166E-02  0.1163E-02  0.1166E-02  0.1163E-02  0.1166E-02  0.1163E-02  0.0000E+00  0.0000E+00  0.0000E+00  0.0000E+00  0.0000E+00  0.0000E+00  0.0000E+00  0.0000E+00  0.0000E+00  0.0000E+00
     -0.400  0.1923E-01  0.1925E-01  0.1178E-02  0.1179E-02  0.1178E-02  0.1179E-02  0.1178E-02  0.1179E-02  0.0000E+00  0.0000E+00  0.0000E+00  0.0000E+00  0.0000E+00  0.0000E+00  0.0000E+00  0.0000E+00  0.0000E+00  0.0000E+00
     -0.313  0.1823E-01  0.1821E-01  0.1175E-02  0.1174E-02  0.1175E-02  0.1174E-02  0.1175E-02  0.1174E-02  0.0000E+00  0.0000E+00  0.0000E+00  0.0000E+00  0.0000E+00  0.0000E+00  0.0000E+00  0.0000E+00  0.0000E+00  0.0000E+00
     -0.225  0.1758E-01  0.1758E-01  0.1186E-02  0.1186E-02  0.1186E-02  0.1186E-02  0.1186E-02  0.1186E-02  0.0000E+00  0.0000E+00  0.0000E+00  0.0000E+00  0.0000E+00  0.0000E+00  0.0000E+00  0.0000E+00  0.0000E+00  0.0000E+00
     -0.137  0.1995E-01  0.1984E-01  0.1421E-02  0.1413E-02  0.1421E-02  0.1413E-02  0.1421E-02  0.1413E-02  0.0000E+00  0.0000E+00  0.0000E+00  0.0000E+00  0.0000E+00  0.0000E+00  0.0000E+00  0.0000E+00  0.0000E+00  0.0000E+00
     -0.050  0.2352E-01  0.2351E-01  0.1726E-02  0.1727E-02  0.1726E-02  0.1727E-02  0.1726E-02  0.1727E-02  0.0000E+00  0.0000E+00  0.0000E+00  0.0000E+00  0.0000E+00  0.0000E+00  0.0000E+00  0.0000E+00  0.0000E+00  0.0000E+00
      0.038  0.1971E-01  0.1974E-01  0.1501E-02  0.1503E-02  0.1501E-02  0.1503E-02  0.1501E-02  0.1503E-02  0.0000E+00  0.0000E+00  0.0000E+00  0.0000E+00  0.0000E+00  0.0000E+00  0.0000E+00  0.0000E+00  0.0000E+00  0.0000E+00
      0.125  0.1948E-01  0.1945E-01  0.1553E-02  0.1550E-02  0.1553E-02  0.1550E-02  0.1553E-02  0.1550E-02  0.0000E+00  0.0000E+00  0.0000E+00  0.0000E+00  0.0000E+00  0.0000E+00  0.0000E+00  0.0000E+00  0.0000E+00  0.0000E+00
      0.213  0.1704E-01  0.1711E-01  0.1399E-02  0.1405E-02  0.1399E-02  0.1405E-02  0.1399E-02  0.1405E-02  0.0000E+00  0.0000E+00  0.0000E+00  0.0000E+00  0.0000E+00  0.0000E+00  0.0000E+00  0.0000E+00  0.0000E+00  0.0000E+00
      0.301  0.1366E-01  0.1362E-01  0.1185E-02  0.1181E-02  0.1185E-02  0.1181E-02  0.1185E-02  0.1181E-02  0.0000E+00  0.0000E+00  0.0000E+00  0.0000E+00  0.0000E+00  0.0000E+00  0.0000E+00  0.0000E+00  0.0000E+00  0.0000E+00
      0.388  0.2022E-01  0.2008E-01  0.1835E-02  0.1823E-02  0.1835E-02  0.1823E-02  0.1835E-02  0.1823E-02  0.0000E+00  0.0000E+00  0.0000E+00  0.0000E+00  0.0000E+00  0.0000E+00  0.0000E+00  0.0000E+00  0.0000E+00  0.0000E+00
      0.476  0.2424E-01  0.2422E-01  0.2257E-02  0.2256E-02  0.2257E-02  0.2256E-02  0.2257E-02  0.2256E-02  0.0000E+00  0.0000E+00  0.0000E+00  0.0000E+00  0.0000E+00  0.0000E+00  0.0000E+00  0.0000E+00  0.0000E+00  0.0000E+00
      0.563  0.2388E-01  0.2383E-01  0.2305E-02  0.2301E-02  0.2305E-02  0.2301E-02  0.2305E-02  0.2301E-02  0.0000E+00  0.0000E+00  0.0000E+00  0.0000E+00  0.0000E+00  0.0000E+00  0.0000E+00  0.0000E+00  0.0000E+00  0.0000E+00
      0.651  0.2509E-01  0.2509E-01  0.2497E-02  0.2499E-02  0.2497E-02  0.2499E-02  0.2497E-02  0.2499E-02  0.0000E+00  0.0000E+00  0.0000E+00  0.0000E+00  0.0000E+00  0.0000E+00  0.0000E+00  0.0000E+00  0.0000E+00  0.0000E+00