   4   4   1   0
  0.1201468E+02  0.3635723E-09  0.3635723E-09  0.3635723E-09  0.5000000E-15
  1.000000000000000E-004
  CAR 
 unknown system                          
     25.71802966     -3.07649867  301     11.67302353      1.00000000
     -3.076  0.0000E+00  0.0000E+00  0.0000E+00  0.0000E+00
     -2.981  0.0000E+00  0.0000E+00  0.0000E+00  0.0000E+00
     -2.885  0.0000E+00  0.0000E+00  0.0000E+00  0.0000E+00
     -2.789  0.0000E+00  0.0000E+00  0.0000E+00  0.0000E+00
     -2.693  0.0000E+00  0.0000E+00  0.0000E+00  0.0000E+00
     -2.597  0.0000E+00  0.0000E+00  0.0000E+00  0.0000E+00
     -2.501  0.0000E+00  0.0000E+00  0.0000E+00  0.0000E+00
     -2.405  0.0000E+00  0.0000E+00  0.0000E+00  0.0000E+00
     -2.309  0.0000E+00  0.0000E+00  0.0000E+00  0.0000E+00
     -2.213  0.6418E-06  0.6466E-06  0.6160E-07  0.6206E-07
     -2.117  0.1447E-04  0.1458E-04  0.1450E-05  0.1461E-05
     -2.021  0.9223E-04  0.9291E-04  0.1030E-04  0.1038E-04
     -1.925  0.6267E-03  0.6313E-03  0.7045E-04  0.7097E-04
     -1.829  0.3869E-02  0.3895E-02  0.4418E-03  0.4448E-03
     -1.733  0.1758E-01  0.1766E-01  0.2129E-02  0.2140E-02
     -1.637  0.4483E-01  0.4493E-01  0.6432E-02  0.6453E-02
     -1.541  0.6449E-01  0.6455E-01  0.1262E-01  0.1265E-01
     -1.445  0.8958E-01  0.8972E-01  0.2122E-01  0.2126E-01
     -1.349  0.1114E+00  0.1114E+00  0.3192E-01  0.3195E-01
     -1.253  0.9593E-01  0.9594E-01  0.4113E-01  0.4116E-01
     -1.157  0.1287E+00  0.1289E+00  0.5349E-01  0.5354E-01
     -1.061  0.1541E+00  0.1540E+00  0.6828E-01  0.6833E-01
     -0.965  0.1414E+00  0.1413E+00  0.8187E-01  0.8192E-01
     -0.869  0.1599E+00  0.1601E+00  0.9722E-01  0.9729E-01
     -0.773  0.1556E+00  0.1555E+00  0.1122E+00  0.1122E+00
     -0.677  0.1453E+00  0.1455E+00  0.1262E+00  0.1262E+00
     -0.581  0.2103E+00  0.2105E+00  0.1463E+00  0.1464E+00
     -0.485  0.2119E+00  0.2118E+00  0.1667E+00  0.1668E+00
     -0.389  0.2117E+00  0.2117E+00  0.1870E+00  0.1871E+00
     -0.293  0.1842E+00  0.1840E+00  0.2047E+00  0.2048E+00
     -0.197  0.1474E+00  0.1475E+00  0.2189E+00  0.2190E+00
     -0.101  0.2211E+00  0.2215E+00  0.2401E+00  0.2402E+00
     -0.005  0.2816E+00  0.2815E+00  0.2672E+00  0.2673E+00
      0.091  0.2430E+00  0.2430E+00  0.2905E+00  0.2906E+00
      0.187  0.2700E+00  0.2701E+00  0.3164E+00  0.3165E+00
      0.283  0.2061E+00  0.2057E+00  0.3362E+00  0.3363E+00
      0.379  0.1916E+00  0.1919E+00  0.3547E+00  0.3548E+00
      0.475  0.2759E+00  0.2761E+00  0.3812E+00  0.3813E+00
      0.571  0.2856E+00  0.2855E+00  0.4086E+00  0.4087E+00
      0.667  0.2608E+00  0.2608E+00  0.4337E+00  0.4338E+00
      0.763  0.2611E+00  0.2610E+00  0.4587E+00  0.4588E+00
      0.859  0.2601E+00  0.2604E+00  0.4837E+00  0.4839E+00
      0.955  0.3565E+00  0.3567E+00  0.5180E+00  0.5181E+00
      1.051  0.3119E+00  0.3116E+00  0.5480E+00  0.5481E+00
      1.147  0.2843E+00  0.2844E+00  0.5753E+00  0.5754E+00
      1.243  0.2906E+00  0.2902E+00  0.6032E+00  0.6033E+00
      1.339  0.1990E+00  0.1988E+00  0.6223E+00  0.6224E+00
      1.435  0.2597E+00  0.2604E+00  0.6473E+00  0.6474E+00
      1.531  0.3811E+00  0.3813E+00  0.6839E+00  0.6840E+00
      1.627  0.3678E+00  0.3678E+00  0.7192E+00  0.7194E+00
      1.723  0.4044E+00  0.4046E+00  0.7580E+00  0.7582E+00
      1.819  0.3591E+00  0.3586E+00  0.7925E+00  0.7926E+00
      1.915  0.2912E+00  0.2912E+00  0.8205E+00  0.8206E+00
      2.011  0.2948E+00  0.2948E+00  0.8488E+00  0.8489E+00
      2.107  0.3041E+00  0.3042E+00  0.8780E+00  0.8782E+00
      2.202  0.3440E+00  0.3443E+00  0.9111E+00  0.9113E+00
      2.298  0.3630E+00  0.3627E+00  0.9460E+00  0.9461E+00
      2.394  0.2936E+00  0.2936E+00  0.9742E+00  0.9743E+00
      2.490  0.4272E+00  0.4278E+00  0.1015E+01  0.1015E+01
      2.586  0.4366E+00  0.4363E+00  0.1057E+01  0.1057E+01
      2.682  0.4128E+00  0.4129E+00  0.1097E+01  0.1097E+01
      2.778  0.3746E+00  0.3741E+00  0.1133E+01  0.1133E+01
      2.874  0.2722E+00  0.2721E+00  0.1159E+01  0.1159E+01
      2.970  0.3765E+00  0.3774E+00  0.1195E+01  0.1195E+01
      3.066  0.4908E+00  0.4909E+00  0.1242E+01  0.1243E+01
      3.162  0.4294E+00  0.4292E+00  0.1284E+01  0.1284E+01
      3.258  0.3875E+00  0.3871E+00  0.1321E+01  0.1321E+01
      3.354  0.2821E+00  0.2819E+00  0.1348E+01  0.1348E+01
      3.450  0.3543E+00  0.3550E+00  0.1382E+01  0.1382E+01
      3.546  0.4473E+00  0.4474E+00  0.1425E+01  0.1425E+01
      3.642  0.4386E+00  0.4386E+00  0.1467E+01  0.1467E+01
      3.738  0.4519E+00  0.4521E+00  0.1510E+01  0.1511E+01
      3.834  0.4276E+00  0.4273E+00  0.1552E+01  0.1552E+01
      3.930  0.4787E+00  0.4798E+00  0.1597E+01  0.1598E+01
      4.026  0.6230E+00  0.6228E+00  0.1657E+01  0.1658E+01
      4.122  0.4371E+00  0.4359E+00  0.1699E+01  0.1699E+01
      4.218  0.3349E+00  0.3350E+00  0.1731E+01  0.1732E+01
      4.314  0.3351E+00  0.3348E+00  0.1764E+01  0.1764E+01
      4.410  0.3005E+00  0.3009E+00  0.1793E+01  0.1793E+01
      4.506  0.4498E+00  0.4508E+00  0.1836E+01  0.1836E+01
      4.602  0.5449E+00  0.5451E+00  0.1888E+01  0.1889E+01
      4.698  0.5909E+00  0.5910E+00  0.1945E+01  0.1945E+01
      4.794  0.4917E+00  0.4907E+00  0.1992E+01  0.1992E+01
      4.890  0.4387E+00  0.4393E+00  0.2034E+01  0.2035E+01
      4.986  0.5345E+00  0.5348E+00  0.2086E+01  0.2086E+01
      5.082  0.5175E+00  0.5174E+00  0.2135E+01  0.2136E+01
      5.178  0.5201E+00  0.5206E+00  0.2185E+01  0.2186E+01
      5.274  0.4975E+00  0.4966E+00  0.2233E+01  0.2233E+01
      5.370  0.3642E+00  0.3643E+00  0.2268E+01  0.2268E+01
      5.466  0.5013E+00  0.5025E+00  0.2316E+01  0.2317E+01
      5.562  0.5533E+00  0.5532E+00  0.2369E+01  0.2370E+01
      5.658  0.5632E+00  0.5635E+00  0.2424E+01  0.2424E+01
      5.754  0.5506E+00  0.5502E+00  0.2476E+01  0.2477E+01
      5.850  0.4975E+00  0.4984E+00  0.2524E+01  0.2525E+01
      5.946  0.6107E+00  0.6113E+00  0.2583E+01  0.2583E+01
      6.042  0.5058E+00  0.5040E+00  0.2632E+01  0.2632E+01
      6.138  0.5019E+00  0.5032E+00  0.2680E+01  0.2680E+01
      6.234  0.6365E+00  0.6364E+00  0.2741E+01  0.2741E+01
      6.330  0.5000E+00  0.4995E+00  0.2789E+01  0.2789E+01
      6.426  0.5751E+00  0.5763E+00  0.2844E+01  0.2845E+01
      6.522  0.6343E+00  0.6338E+00  0.2905E+01  0.2906E+01
      6.618  0.5160E+00  0.5155E+00  0.2955E+01  0.2955E+01
      6.714  0.4821E+00  0.4819E+00  0.3001E+01  0.3001E+01
      6.810  0.4394E+00  0.4399E+00  0.3043E+01  0.3044E+01
      6.906  0.5234E+00  0.5236E+00  0.3094E+01  0.3094E+01
      7.002  0.4902E+00  0.4886E+00  0.3141E+01  0.3141E+01
      7.098  0.4042E+00  0.4032E+00  0.3180E+01  0.3180E+01
      7.194  0.3740E+00  0.3737E+00  0.3215E+01  0.3216E+01
      7.290  0.4631E+00  0.4643E+00  0.3260E+01  0.3260E+01
      7.386  0.6903E+00  0.6926E+00  0.3326E+01  0.3327E+01
      7.481  0.6846E+00  0.6835E+00  0.3392E+01  0.3392E+01
      7.577  0.6745E+00  0.6750E+00  0.3457E+01  0.3457E+01
      7.673  0.6954E+00  0.6949E+00  0.3524E+01  0.3524E+01
      7.769  0.6152E+00  0.6134E+00  0.3583E+01  0.3583E+01
      7.865  0.4894E+00  0.4880E+00  0.3630E+01  0.3630E+01
      7.961  0.3627E+00  0.3635E+00  0.3665E+01  0.3665E+01
      8.057  0.5373E+00  0.5386E+00  0.3716E+01  0.3717E+01
      8.153  0.7406E+00  0.7409E+00  0.3787E+01  0.3788E+01
      8.249  0.7358E+00  0.7359E+00  0.3858E+01  0.3858E+01
      8.345  0.6133E+00  0.6139E+00  0.3917E+01  0.3917E+01
      8.441  0.5081E+00  0.5063E+00  0.3966E+01  0.3966E+01
      8.537  0.5823E+00  0.5823E+00  0.4022E+01  0.4022E+01
      8.633  0.6830E+00  0.6843E+00  0.4087E+01  0.4088E+01
      8.729  0.7688E+00  0.7695E+00  0.4161E+01  0.4162E+01
      8.825  0.6892E+00  0.6871E+00  0.4227E+01  0.4228E+01
      8.921  0.4612E+00  0.4594E+00  0.4272E+01  0.4272E+01
      9.017  0.4333E+00  0.4336E+00  0.4313E+01  0.4313E+01
      9.113  0.5295E+00  0.5302E+00  0.4364E+01  0.4364E+01
      9.209  0.6140E+00  0.6157E+00  0.4423E+01  0.4424E+01
      9.305  0.6946E+00  0.6943E+00  0.4490E+01  0.4490E+01
      9.401  0.5250E+00  0.5238E+00  0.4540E+01  0.4541E+01
      9.497  0.5187E+00  0.5196E+00  0.4590E+01  0.4591E+01
      9.593  0.6119E+00  0.6117E+00  0.4649E+01  0.4649E+01
      9.689  0.6461E+00  0.6462E+00  0.4711E+01  0.4711E+01
      9.785  0.6719E+00  0.6719E+00  0.4776E+01  0.4776E+01
      9.881  0.6294E+00  0.6302E+00  0.4836E+01  0.4836E+01
      9.977  0.7305E+00  0.7310E+00  0.4906E+01  0.4907E+01
     10.073  0.6592E+00  0.6591E+00  0.4970E+01  0.4970E+01
     10.169  0.6568E+00  0.6572E+00  0.5033E+01  0.5033E+01
     10.265  0.6503E+00  0.6501E+00  0.5095E+01  0.5096E+01
     10.361  0.6944E+00  0.6955E+00  0.5162E+01  0.5162E+01
     10.457  0.8134E+00  0.8134E+00  0.5240E+01  0.5241E+01
     10.553  0.6588E+00  0.6584E+00  0.5303E+01  0.5304E+01
     10.649  0.5695E+00  0.5690E+00  0.5358E+01  0.5358E+01
     10.745  0.5476E+00  0.5462E+00  0.5411E+01  0.5411E+01
     10.841  0.5599E+00  0.5609E+00  0.5465E+01  0.5465E+01
     10.937  0.6946E+00  0.6964E+00  0.5531E+01  0.5532E+01
     11.033  0.7049E+00  0.7050E+00  0.5599E+01  0.5600E+01
     11.129  0.8088E+00  0.8099E+00  0.5677E+01  0.5677E+01
     11.225  0.8029E+00  0.8019E+00  0.5754E+01  0.5754E+01
     11.321  0.6962E+00  0.6958E+00  0.5821E+01  0.5821E+01
     11.417  0.6096E+00  0.6079E+00  0.5879E+01  0.5880E+01
     11.513  0.4342E+00  0.4333E+00  0.5921E+01  0.5921E+01
     11.609  0.4955E+00  0.4959E+00  0.5969E+01  0.5969E+01
     11.705  0.4711E+00  0.4705E+00  0.6014E+01  0.6014E+01
     11.801  0.5020E+00  0.5032E+00  0.6062E+01  0.6063E+01
     11.897  0.6741E+00  0.6745E+00  0.6127E+01  0.6127E+01
     11.993  0.7278E+00  0.7267E+00  0.6197E+01  0.6197E+01
     12.089  0.5872E+00  0.5862E+00  0.6253E+01  0.6253E+01
     12.185  0.3357E+00  0.3352E+00  0.6285E+01  0.6286E+01
     12.281  0.3763E+00  0.3773E+00  0.6322E+01  0.6322E+01
     12.377  0.6994E+00  0.6999E+00  0.6389E+01  0.6389E+01
     12.473  0.9419E+00  0.9423E+00  0.6479E+01  0.6480E+01
     12.569  0.1124E+01  0.1126E+01  0.6587E+01  0.6588E+01
     12.665  0.1041E+01  0.1040E+01  0.6687E+01  0.6688E+01
     12.760  0.8402E+00  0.8380E+00  0.6768E+01  0.6768E+01
     12.856  0.7627E+00  0.7632E+00  0.6841E+01  0.6841E+01
     12.952  0.6858E+00  0.6867E+00  0.6907E+01  0.6907E+01
     13.048  0.6199E+00  0.6199E+00  0.6967E+01  0.6967E+01
     13.144  0.5052E+00  0.5040E+00  0.7015E+01  0.7015E+01
     13.240  0.5312E+00  0.5313E+00  0.7066E+01  0.7067E+01
     13.336  0.4683E+00  0.4677E+00  0.7111E+01  0.7111E+01
     13.432  0.5886E+00  0.5898E+00  0.7168E+01  0.7168E+01
     13.528  0.8841E+00  0.8864E+00  0.7253E+01  0.7253E+01
     13.624  0.8829E+00  0.8814E+00  0.7338E+01  0.7338E+01
     13.720  0.7903E+00  0.7887E+00  0.7413E+01  0.7414E+01
     13.816  0.7058E+00  0.7057E+00  0.7481E+01  0.7481E+01
     13.912  0.6267E+00  0.6268E+00  0.7541E+01  0.7542E+01
     14.008  0.5546E+00  0.5551E+00  0.7595E+01  0.7595E+01
     14.104  0.6227E+00  0.6236E+00  0.7655E+01  0.7655E+01
     14.200  0.7995E+00  0.8004E+00  0.7731E+01  0.7732E+01
     14.296  0.8571E+00  0.8570E+00  0.7814E+01  0.7814E+01
     14.392  0.6305E+00  0.6308E+00  0.7874E+01  0.7875E+01
     14.488  0.5686E+00  0.5690E+00  0.7929E+01  0.7929E+01
     14.584  0.6005E+00  0.5991E+00  0.7987E+01  0.7987E+01
     14.680  0.6845E+00  0.6839E+00  0.8052E+01  0.8053E+01
     14.776  0.7131E+00  0.7130E+00  0.8121E+01  0.8121E+01
     14.872  0.7720E+00  0.7716E+00  0.8195E+01  0.8195E+01
     14.968  0.8253E+00  0.8253E+00  0.8274E+01  0.8275E+01
     15.064  0.5898E+00  0.5892E+00  0.8331E+01  0.8331E+01
     15.160  0.5724E+00  0.5715E+00  0.8386E+01  0.8386E+01
     15.256  0.7251E+00  0.7240E+00  0.8456E+01  0.8456E+01
     15.352  0.5949E+00  0.5923E+00  0.8513E+01  0.8513E+01
     15.448  0.4365E+00  0.4357E+00  0.8555E+01  0.8555E+01
     15.544  0.7152E+00  0.7148E+00  0.8623E+01  0.8623E+01
     15.640  0.1041E+01  0.1045E+01  0.8724E+01  0.8724E+01
     15.736  0.8923E+00  0.8945E+00  0.8809E+01  0.8810E+01
     15.832  0.6882E+00  0.6871E+00  0.8875E+01  0.8875E+01
     15.928  0.5706E+00  0.5676E+00  0.8930E+01  0.8930E+01
     16.024  0.6237E+00  0.6194E+00  0.8990E+01  0.8990E+01
     16.120  0.6953E+00  0.6954E+00  0.9057E+01  0.9056E+01
     16.216  0.6481E+00  0.6511E+00  0.9119E+01  0.9119E+01
     16.312  0.8125E+00  0.8114E+00  0.9197E+01  0.9197E+01
     16.408  0.9590E+00  0.9592E+00  0.9289E+01  0.9289E+01
     16.504  0.9364E+00  0.9361E+00  0.9379E+01  0.9379E+01
     16.600  0.8018E+00  0.8020E+00  0.9456E+01  0.9456E+01
     16.696  0.5794E+00  0.5798E+00  0.9512E+01  0.9512E+01
     16.792  0.6133E+00  0.6149E+00  0.9571E+01  0.9571E+01
     16.888  0.7029E+00  0.7051E+00  0.9639E+01  0.9639E+01
     16.984  0.7604E+00  0.7568E+00  0.9712E+01  0.9711E+01
     17.080  0.9529E+00  0.9445E+00  0.9803E+01  0.9802E+01
     17.176  0.1010E+01  0.1012E+01  0.9900E+01  0.9899E+01
     17.272  0.9232E+00  0.9238E+00  0.9989E+01  0.9988E+01
     17.368  0.7486E+00  0.7492E+00  0.1006E+02  0.1006E+02
     17.464  0.5212E+00  0.5227E+00  0.1011E+02  0.1011E+02
     17.560  0.4658E+00  0.4609E+00  0.1016E+02  0.1015E+02
     17.656  0.5975E+00  0.5987E+00  0.1021E+02  0.1021E+02
     17.752  0.6901E+00  0.6955E+00  0.1028E+02  0.1028E+02
     17.848  0.8045E+00  0.8079E+00  0.1036E+02  0.1036E+02
     17.944  0.1031E+01  0.1026E+01  0.1046E+02  0.1045E+02
     18.039  0.1186E+01  0.1178E+01  0.1057E+02  0.1057E+02
     18.135  0.1092E+01  0.1090E+01  0.1067E+02  0.1067E+02
     18.231  0.7356E+00  0.7419E+00  0.1075E+02  0.1074E+02
     18.327  0.4544E+00  0.4559E+00  0.1079E+02  0.1079E+02
     18.423  0.4491E+00  0.4514E+00  0.1083E+02  0.1083E+02
     18.519  0.5485E+00  0.5484E+00  0.1088E+02  0.1088E+02
     18.615  0.6837E+00  0.6797E+00  0.1095E+02  0.1095E+02
     18.711  0.8352E+00  0.8338E+00  0.1103E+02  0.1103E+02
     18.807  0.8341E+00  0.8356E+00  0.1111E+02  0.1111E+02
     18.903  0.5913E+00  0.5960E+00  0.1117E+02  0.1117E+02
     18.999  0.4148E+00  0.4268E+00  0.1121E+02  0.1121E+02
     19.095  0.3619E+00  0.3902E+00  0.1124E+02  0.1125E+02
     19.191  0.3733E+00  0.3685E+00  0.1128E+02  0.1128E+02
     19.287  0.4683E+00  0.4460E+00  0.1132E+02  0.1132E+02
     19.383  0.5140E+00  0.5036E+00  0.1137E+02  0.1137E+02
     19.479  0.6259E+00  0.6225E+00  0.1143E+02  0.1143E+02
     19.575  0.4873E+00  0.4907E+00  0.1148E+02  0.1148E+02
     19.671  0.1676E+00  0.1690E+00  0.1150E+02  0.1150E+02
     19.767  0.8333E-01  0.8382E-01  0.1150E+02  0.1150E+02
     19.863  0.1181E+00  0.1177E+00  0.1151E+02  0.1151E+02
     19.959  0.1723E+00  0.1688E+00  0.1153E+02  0.1153E+02
     20.055  0.2460E+00  0.2438E+00  0.1156E+02  0.1155E+02
     20.151  0.2875E+00  0.2904E+00  0.1158E+02  0.1158E+02
     20.247  0.3070E+00  0.3087E+00  0.1161E+02  0.1161E+02
     20.343  0.3565E+00  0.3560E+00  0.1165E+02  0.1165E+02
     20.439  0.3510E+00  0.3507E+00  0.1168E+02  0.1168E+02
     20.535  0.2728E+00  0.2738E+00  0.1171E+02  0.1171E+02
     20.631  0.1560E+00  0.1568E+00  0.1172E+02  0.1172E+02
     20.727  0.4851E-01  0.4924E-01  0.1173E+02  0.1173E+02
     20.823  0.1485E-01  0.1462E-01  0.1173E+02  0.1173E+02
     20.919  0.4159E-01  0.3958E-01  0.1173E+02  0.1173E+02
     21.015  0.1455E+00  0.1415E+00  0.1175E+02  0.1174E+02
     21.111  0.2274E+00  0.2281E+00  0.1177E+02  0.1177E+02
     21.207  0.2373E+00  0.2405E+00  0.1179E+02  0.1179E+02
     21.303  0.1919E+00  0.1933E+00  0.1181E+02  0.1181E+02
     21.399  0.1032E+00  0.1029E+00  0.1182E+02  0.1182E+02
     21.495  0.7935E-01  0.8001E-01  0.1183E+02  0.1183E+02
     21.591  0.1006E+00  0.1019E+00  0.1184E+02  0.1184E+02
     21.687  0.1155E+00  0.1157E+00  0.1185E+02  0.1185E+02
     21.783  0.7583E-01  0.7569E-01  0.1185E+02  0.1185E+02
     21.879  0.1169E+00  0.1166E+00  0.1187E+02  0.1187E+02
     21.975  0.1419E+00  0.1398E+00  0.1188E+02  0.1188E+02
     22.071  0.1933E+00  0.1912E+00  0.1190E+02  0.1190E+02
     22.167  0.1462E+00  0.1485E+00  0.1191E+02  0.1191E+02
     22.263  0.4688E-01  0.4854E-01  0.1192E+02  0.1192E+02
     22.359  0.3641E-01  0.3680E-01  0.1192E+02  0.1192E+02
     22.455  0.5105E-01  0.5107E-01  0.1192E+02  0.1192E+02
     22.551  0.2177E-01  0.2171E-01  0.1193E+02  0.1193E+02
     22.647  0.4935E-02  0.4918E-02  0.1193E+02  0.1193E+02
     22.743  0.6152E-02  0.6124E-02  0.1193E+02  0.1193E+02
     22.839  0.3353E-01  0.3340E-01  0.1193E+02  0.1193E+02
     22.935  0.1304E+00  0.1300E+00  0.1194E+02  0.1194E+02
     23.031  0.1951E+00  0.1949E+00  0.1196E+02  0.1196E+02
     23.127  0.1011E+00  0.1016E+00  0.1197E+02  0.1197E+02
     23.223  0.2239E-01  0.2259E-01  0.1197E+02  0.1197E+02
     23.318  0.3513E-02  0.3624E-02  0.1197E+02  0.1197E+02
     23.414  0.4733E-03  0.2731E-03  0.1197E+02  0.1197E+02
     23.510  0.1686E-02  0.1828E-02  0.1197E+02  0.1197E+02
     23.606  0.1029E-01  0.1106E-01  0.1198E+02  0.1198E+02
     23.702  0.3919E-01  0.4058E-01  0.1198E+02  0.1198E+02
     23.798  0.4553E-01  0.4441E-01  0.1198E+02  0.1198E+02
     23.894  0.1647E-01  0.1574E-01  0.1199E+02  0.1199E+02
     23.990  0.1504E-01  0.1607E-01  0.1199E+02  0.1199E+02
     24.086  0.4105E-01  0.4418E-01  0.1199E+02  0.1199E+02
     24.182  0.4180E-01  0.4034E-01  0.1199E+02  0.1200E+02
     24.278  0.1608E-01  0.1341E-01  0.1200E+02  0.1200E+02
     24.374  0.1295E-01  0.1191E-01  0.1200E+02  0.1200E+02
     24.470  0.1684E-01  0.1691E-01  0.1200E+02  0.1200E+02
     24.566  0.6674E-02  0.7065E-02  0.1200E+02  0.1200E+02
     24.662  0.1239E-02  0.1333E-02  0.1200E+02  0.1200E+02
     24.758  0.1888E-03  0.2038E-03  0.1200E+02  0.1200E+02
     24.854  0.0000E+00  0.0000E+00  0.1200E+02  0.1200E+02
     24.950  0.0000E+00  0.0000E+00  0.1200E+02  0.1200E+02
     25.046  0.0000E+00  0.0000E+00  0.1200E+02  0.1200E+02
     25.142  0.0000E+00  0.0000E+00  0.1200E+02  0.1200E+02
     25.238  0.0000E+00  0.0000E+00  0.1200E+02  0.1200E+02
     25.334  0.0000E+00  0.0000E+00  0.1200E+02  0.1200E+02
     25.430  0.0000E+00  0.0000E+00  0.1200E+02  0.1200E+02
     25.526  0.0000E+00  0.0000E+00  0.1200E+02  0.1200E+02
     25.622  0.0000E+00  0.0000E+00  0.1200E+02  0.1200E+02
     25.718  0.0000E+00  0.0000E+00  0.1200E+02  0.1200E+02
     25.71802966     -3.07649867  301     11.67302353      1.00000000
     -3.076  0.0000E+00  0.0000E+00  0.0000E+00  0.0000E+00  0.0000E+00  0.0000E+00  0.0000E+00  0.0000E+00  0.0000E+00  0.0000E+00  0.0000E+00  0.0000E+00  0.0000E+00  0.0000E+00  0.0000E+00  0.0000E+00  0.0000E+00  0.0000E+00
     -2.981  0.0000E+00  0.0000E+00  0.0000E+00  0.0000E+00  0.0000E+00  0.0000E+00  0.0000E+00  0.0000E+00  0.0000E+00  0.0000E+00  0.0000E+00  0.0000E+00  0.0000E+00  0.0000E+00  0.0000E+00  0.0000E+00  0.0000E+00  0.0000E+00
     -2.885  0.0000E+00  0.0000E+00  0.0000E+00  0.0000E+00  0.0000E+00  0.0000E+00  0.0000E+00  0.0000E+00  0.0000E+00  0.0000E+00  0.0000E+00  0.0000E+00  0.0000E+00  0.0000E+00  0.0000E+00  0.0000E+00  0.0000E+00  0.0000E+00
     -2.789  0.0000E+00  0.0000E+00  0.0000E+00  0.0000E+00  0.0000E+00  0.0000E+00  0.0000E+00  0.0000E+00  0.0000E+00  0.0000E+00  0.0000E+00  0.0000E+00  0.0000E+00  0.0000E+00  0.0000E+00  0.0000E+00  0.0000E+00  0.0000E+00
     -2.693  0.0000E+00  0.0000E+00  0.0000E+00  0.0000E+00  0.0000E+00  0.0000E+00  0.0000E+00  0.0000E+00  0.0000E+00  0.0000E+00  0.0000E+00  0.0000E+00  0.0000E+00  0.0000E+00  0.0000E+00  0.0000E+00  0.0000E+00  0.0000E+00
     -2.597  0.0000E+00  0.0000E+00  0.0000E+00  0.0000E+00  0.0000E+00  0.0000E+00  0.0000E+00  0.0000E+00  0.0000E+00  0.0000E+00  0.0000E+00  0.0000E+00  0.0000E+00  0.0000E+00  0.0000E+00  0.0000E+00  0.0000E+00  0.0000E+00
     -2.501  0.0000E+00  0.0000E+00  0.0000E+00  0.0000E+00  0.0000E+00  0.0000E+00  0.0000E+00  0.0000E+00  0.0000E+00  0.0000E+00  0.0000E+00  0.0000E+00  0.0000E+00  0.0000E+00  0.0000E+00  0.0000E+00  0.0000E+00  0.0000E+00
     -2.405  0.0000E+00  0.0000E+00  0.0000E+00  0.0000E+00  0.0000E+00  0.0000E+00  0.0000E+00  0.0000E+00  0.0000E+00  0.0000E+00  0.0000E+00  0.0000E+00  0.0000E+00  0.0000E+00  0.0000E+00  0.0000E+00  0.0000E+00  0.0000E+00
     -2.309  0.0000E+00  0.0000E+00  0.0000E+00  0.0000E+00  0.0000E+00  0.0000E+00  0.0000E+00  0.0000E+00  0.0000E+00  0.0000E+00  0.0000E+00  0.0000E+00  0.0000E+00  0.0000E+00  0.0000E+00  0.0000E+00  0.0000E+00  0.0000E+00
     -2.213  0.5493E-07  0.5531E-07  0.5897E-23  0.4097E-23  0.5897E-23  0.4097E-23  0.5897E-23  0.4097E-23  0.0000E+00  0.0000E+00  0.0000E+00  0.0000E+00  0.0000E+00  0.0000E+00  0.0000E+00  0.0000E+00  0.0000E+00  0.0000E+00
     -2.117  0.1232E-05  0.1240E-05  0.2147E-08  0.2162E-08  0.2147E-08  0.2162E-08  0.2147E-08  0.2162E-08  0.0000E+00  0.0000E+00  0.0000E+00  0.0000E+00  0.0000E+00  0.0000E+00  0.0000E+00  0.0000E+00  0.0000E+00  0.0000E+00
     -2.021  0.7849E-05  0.7903E-05  0.1449E-07  0.1459E-07  0.1449E-07  0.1459E-07  0.1449E-07  0.1459E-07  0.0000E+00  0.0000E+00  0.0000E+00  0.0000E+00  0.0000E+00  0.0000E+00  0.0000E+00  0.0000E+00  0.0000E+00  0.0000E+00
     -1.925  0.5331E-04  0.5368E-04  0.1047E-06  0.1055E-06  0.1047E-06  0.1055E-06  0.1047E-06  0.1055E-06  0.0000E+00  0.0000E+00  0.0000E+00  0.0000E+00  0.0000E+00  0.0000E+00  0.0000E+00  0.0000E+00  0.0000E+00  0.0000E+00
     -1.829  0.3290E-03  0.3310E-03  0.6902E-06  0.6950E-06  0.6902E-06  0.6950E-06  0.6902E-06  0.6950E-06  0.0000E+00  0.0000E+00  0.0000E+00  0.0000E+00  0.0000E+00  0.0000E+00  0.0000E+00  0.0000E+00  0.0000E+00  0.0000E+00
     -1.733  0.1492E-02  0.1499E-02  0.3838E-05  0.3860E-05  0.3838E-05  0.3860E-05  0.3838E-05  0.3860E-05  0.0000E+00  0.0000E+00  0.0000E+00  0.0000E+00  0.0000E+00  0.0000E+00  0.0000E+00  0.0000E+00  0.0000E+00  0.0000E+00
     -1.637  0.3795E-02  0.3802E-02  0.1356E-04  0.1360E-04  0.1356E-04  0.1360E-04  0.1356E-04  0.1360E-04  0.0000E+00  0.0000E+00  0.0000E+00  0.0000E+00  0.0000E+00  0.0000E+00  0.0000E+00  0.0000E+00  0.0000E+00  0.0000E+00
     -1.541  0.5429E-02  0.5431E-02  0.2959E-04  0.2967E-04  0.2959E-04  0.2967E-04  0.2959E-04  0.2967E-04  0.0000E+00  0.0000E+00  0.0000E+00  0.0000E+00  0.0000E+00  0.0000E+00  0.0000E+00  0.0000E+00  0.0000E+00  0.0000E+00
     -1.445  0.7480E-02  0.7488E-02  0.6096E-04  0.6111E-04  0.6096E-04  0.6111E-04  0.6096E-04  0.6111E-04  0.0000E+00  0.0000E+00  0.0000E+00  0.0000E+00  0.0000E+00  0.0000E+00  0.0000E+00  0.0000E+00  0.0000E+00  0.0000E+00
     -1.349  0.9256E-02  0.9249E-02  0.9197E-04  0.9199E-04  0.9197E-04  0.9199E-04  0.9197E-04  0.9199E-04  0.0000E+00  0.0000E+00  0.0000E+00  0.0000E+00  0.0000E+00  0.0000E+00  0.0000E+00  0.0000E+00  0.0000E+00  0.0000E+00
     -1.253  0.7903E-02  0.7898E-02  0.1005E-03  0.1006E-03  0.1005E-03  0.1006E-03  0.1005E-03  0.1006E-03  0.0000E+00  0.0000E+00  0.0000E+00  0.0000E+00  0.0000E+00  0.0000E+00  0.0000E+00  0.0000E+00  0.0000E+00  0.0000E+00
     -1.157  0.1050E-01  0.1051E-01  0.1681E-03  0.1684E-03  0.1681E-03  0.1684E-03  0.1681E-03  0.1684E-03  0.0000E+00  0.0000E+00  0.0000E+00  0.0000E+00  0.0000E+00  0.0000E+00  0.0000E+00  0.0000E+00  0.0000E+00  0.0000E+00
     -1.061  0.1249E-01  0.1249E-01  0.2252E-03  0.2252E-03  0.2252E-03  0.2252E-03  0.2252E-03  0.2252E-03  0.0000E+00  0.0000E+00  0.0000E+00  0.0000E+00  0.0000E+00  0.0000E+00  0.0000E+00  0.0000E+00  0.0000E+00  0.0000E+00
     -0.965  0.1137E-01  0.1137E-01  0.2352E-03  0.2353E-03  0.2352E-03  0.2353E-03  0.2352E-03  0.2353E-03  0.0000E+00  0.0000E+00  0.0000E+00  0.0000E+00  0.0000E+00  0.0000E+00  0.0000E+00  0.0000E+00  0.0000E+00  0.0000E+00
     -0.869  0.1275E-01  0.1276E-01  0.3037E-03  0.3039E-03  0.3037E-03  0.3039E-03  0.3037E-03  0.3039E-03  0.0000E+00  0.0000E+00  0.0000E+00  0.0000E+00  0.0000E+00  0.0000E+00  0.0000E+00  0.0000E+00  0.0000E+00  0.0000E+00
     -0.773  0.1234E-01  0.1232E-01  0.3193E-03  0.3190E-03  0.3193E-03  0.3190E-03  0.3193E-03  0.3190E-03  0.0000E+00  0.0000E+00  0.0000E+00  0.0000E+00  0.0000E+00  0.0000E+00  0.0000E+00  0.0000E+00  0.0000E+00  0.0000E+00
     -0.677  0.1139E-01  0.1140E-01  0.3397E-03  0.3403E-03  0.3397E-03  0.3403E-03  0.3397E-03  0.3403E-03  0.0000E+00  0.0000E+00  0.0000E+00  0.0000E+00  0.0000E+00  0.0000E+00  0.0000E+00  0.0000E+00  0.0000E+00  0.0000E+00
     -0.581  0.1636E-01  0.1636E-01  0.5310E-03  0.5314E-03  0.5310E-03  0.5314E-03  0.5310E-03  0.5314E-03  0.0000E+00  0.0000E+00  0.0000E+00  0.0000E+00  0.0000E+00  0.0000E+00  0.0000E+00  0.0000E+00  0.0000E+00  0.0000E+00
     -0.485  0.1637E-01  0.1636E-01  0.5699E-03  0.5698E-03  0.5699E-03  0.5698E-03  0.5699E-03  0.5698E-03  0.0000E+00  0.0000E+00  0.0000E+00  0.0000E+00  0.0000E+00  0.0000E+00  0.0000E+00  0.0000E+00  0.0000E+00  0.0000E+00
     -0.389  0.1621E-01  0.1621E-01  0.6129E-03  0.6130E-03  0.6129E-03  0.6130E-03  0.6129E-03  0.6130E-03  0.0000E+00  0.0000E+00  0.0000E+00  0.0000E+00  0.0000E+00  0.0000E+00  0.0000E+00  0.0000E+00  0.0000E+00  0.0000E+00
     -0.293  0.1402E-01  0.1399E-01  0.5624E-03  0.5616E-03  0.5624E-03  0.5616E-03  0.5624E-03  0.5616E-03  0.0000E+00  0.0000E+00  0.0000E+00  0.0000E+00  0.0000E+00  0.0000E+00  0.0000E+00  0.0000E+00  0.0000E+00  0.0000E+00
     -0.197  0.1109E-01  0.1109E-01  0.4903E-03  0.4907E-03  0.4903E-03  0.4907E-03  0.4903E-03  0.4907E-03  0.0000E+00  0.0000E+00  0.0000E+00  0.0000E+00  0.0000E+00  0.0000E+00  0.0000E+00  0.0000E+00  0.0000E+00  0.0000E+00
     -0.101  0.1646E-01  0.1648E-01  0.7899E-03  0.7914E-03  0.7899E-03  0.7914E-03  0.7899E-03  0.7914E-03  0.0000E+00  0.0000E+00  0.0000E+00  0.0000E+00  0.0000E+00  0.0000E+00  0.0000E+00  0.0000E+00  0.0000E+00  0.0000E+00
     -0.005  0.2084E-01  0.2083E-01  0.1043E-02  0.1042E-02  0.1043E-02  0.1042E-02  0.1043E-02  0.1042E-02  0.0000E+00  0.0000E+00  0.0000E+00  0.0000E+00  0.0000E+00  0.0000E+00  0.0000E+00  0.0000E+00  0.0000E+00  0.0000E+00
      0.091  0.1784E-01  0.1783E-01  0.9464E-03  0.9463E-03  0.9464E-03  0.9463E-03  0.9464E-03  0.9463E-03  0.0000E+00  0.0000E+00  0.0000E+00  0.0000E+00  0.0000E+00  0.0000E+00  0.0000E+00  0.0000E+00  0.0000E+00  0.0000E+00
      0.187  0.1965E-01  0.1964E-01  0.1105E-02  0.1106E-02  0.1105E-02  0.1106E-02  0.1105E-02  0.1106E-02  0.0000E+00  0.0000E+00  0.0000E+00  0.0000E+00  0.0000E+00  0.0000E+00  0.0000E+00  0.0000E+00  0.0000E+00  0.0000E+00
      0.283  0.1490E-01  0.1486E-01  0.8733E-03  0.8717E-03  0.8733E-03  0.8717E-03  0.8733E-03  0.8717E-03  0.0000E+00  0.0000E+00  0.0000E+00  0.0000E+00  0.0000E+00  0.0000E+00  0.0000E+00  0.0000E+00  0.0000E+00  0.0000E+00
      0.379  0.1366E-01  0.1367E-01  0.8696E-03  0.8709E-03  0.8696E-03  0.8709E-03  0.8696E-03  0.8709E-03  0.0000E+00  0.0000E+00  0.0000E+00  0.0000E+00  0.0000E+00  0.0000E+00  0.0000E+00  0.0000E+00  0.0000E+00  0.0000E+00
      0.475  0.1951E-01  0.1952E-01  0.1301E-02  0.1302E-02  0.1301E-02  0.1302E-02  0.1301E-02  0.1302E-02  0.0000E+00  0.0000E+00  0.0000E+00  0.0000E+00  0.0000E+00  0.0000E+00  0.0000E+00  0.0000E+00  0.0000E+00  0.0000E+00
      0.571  0.2006E-01  0.2004E-01  0.1390E-02  0.1390E-02  0.1390E-02  0.1390E-02  0.1390E-02  0.1390E-02  0.0000E+00  0.0000E+00  0.0000E+00  0.0000E+00  0.0000E+00  0.0000E+00  0.0000E+00  0.0000E+00  0.0000E+00  0.0000E+00
      0.667  0.1815E-01  0.1814E-01  0.1322E-02  0.1322E-02  0.1322E-02  0.1322E-02  0.1322E-02  0.1322E-02  0.0000E+00  0.0000E+00  0.0000E+00  0.0000E+00  0.0000E+00  0.0000E+00  0.0000E+00  0.0000E+00  0.0000E+00  0.0000E+00
      0.763  0.1801E-01  0.1799E-01  0.1373E-02  0.1373E-02  0.1373E-02  0.1373E-02  0.1373E-02  0.1373E-02  0.0000E+00  0.0000E+00  0.0000E+00  0.0000E+00  0.0000E+00  0.0000E+00  0.0000E+00  0.0000E+00  0.0000E+00  0.0000E+00
      0.859  0.1773E-01  0.1774E-01  0.1430E-02  0.1432E-02  0.1430E-02  0.1432E-02  0.1430E-02  0.1432E-02  0.0000E+00  0.0000E+00  0.0000E+00  0.0000E+00  0.0000E+00  0.0000E+00  0.0000E+00  0.0000E+00  0.0000E+00  0.0000E+00
      0.955  0.2410E-01  0.2410E-01  0.2020E-02  0.2021E-02  0.2020E-02  0.2021E-02  0.2020E-02  0.2021E-02  0.0000E+00  0.0000E+00  0.0000E+00  0.0000E+00  0.0000E+00  0.0000E+00  0.0000E+00  0.0000E+00  0.0000E+00  0.0000E+00
      1.051  0.2094E-01  0.2090E-01  0.1810E-02  0.1808E-02  0.1810E-02  0.1808E-02  0.1810E-02  0.1808E-02  0.0000E+00  0.0000E+00  0.0000E+00  0.0000E+00  0.0000E+00  0.0000E+00  0.0000E+00  0.0000E+00  0.0000E+00  0.0000E+00
      1.147  0.1887E-01  0.1886E-01  0.1715E-02  0.1716E-02  0.1715E-02  0.1716E-02  0.1715E-02  0.1716E-02  0.0000E+00  0.0000E+00  0.0000E+00  0.0000E+00  0.0000E+00  0.0000E+00  0.0000E+00  0.0000E+00  0.0000E+00  0.0000E+00
      1.243  0.1914E-01  0.1910E-01  0.1797E-02  0.1794E-02  0.1797E-02  0.1794E-02  0.1797E-02  0.1794E-02  0.0000E+00  0.0000E+00  0.0000E+00  0.0000E+00  0.0000E+00  0.0000E+00  0.0000E+00  0.0000E+00  0.0000E+00  0.0000E+00
      1.339  0.1298E-01  0.1295E-01  0.1269E-02  0.1267E-02  0.1269E-02  0.1267E-02  0.1269E-02  0.1267E-02  0.0000E+00  0.0000E+00  0.0000E+00  0.0000E+00  0.0000E+00  0.0000E+00  0.0000E+00  0.0000E+00  0.0000E+00  0.0000E+00
      1.435  0.1668E-01  0.1671E-01  0.1733E-02  0.1737E-02  0.1733E-02  0.1737E-02  0.1733E-02  0.1737E-02  0.0000E+00  0.0000E+00  0.0000E+00  0.0000E+00  0.0000E+00  0.0000E+00  0.0000E+00  0.0000E+00  0.0000E+00  0.0000E+00
      1.531  0.2431E-01  0.2430E-01  0.2592E-02  0.2593E-02  0.2592E-02  0.2593E-02  0.2592E-02  0.2593E-02  0.0000E+00  0.0000E+00  0.0000E+00  0.0000E+00  0.0000E+00  0.0000E+00  0.0000E+00  0.0000E+00  0.0000E+00  0.0000E+00
      1.627  0.2326E-01  0.2324E-01  0.2560E-02  0.2560E-02  0.2560E-02  0.2560E-02  0.2560E-02  0.2560E-02  0.0000E+00  0.0000E+00  0.0000E+00  0.0000E+00  0.0000E+00  0.0000E+00  0.0000E+00  0.0000E+00  0.0000E+00  0.0000E+00
      1.723  0.2530E-01  0.2530E-01  0.2893E-02  0.2894E-02  0.2893E-02  0.2894E-02  0.2893E-02  0.2894E-02  0.0000E+00  0.0000E+00  0.0000E+00  0.0000E+00  0.0000E+00  0.0000E+00  0.0000E+00  0.0000E+00  0.0000E+00  0.0000E+00