   4   4   1   0
  0.1698044E+02  0.4080089E-09  0.4080089E-09  0.4080089E-09  0.5000000E-15
  1.000000000000000E-004
  CAR 
 unknown system                          
     19.12769785     -4.29973110  301      7.69867685      1.00000000
     -4.300  0.0000E+00  0.0000E+00  0.0000E+00  0.0000E+00
     -4.222  0.0000E+00  0.0000E+00  0.0000E+00  0.0000E+00
     -4.144  0.0000E+00  0.0000E+00  0.0000E+00  0.0000E+00
     -4.065  0.0000E+00  0.0000E+00  0.0000E+00  0.0000E+00
     -3.987  0.0000E+00  0.0000E+00  0.0000E+00  0.0000E+00
     -3.909  0.0000E+00  0.0000E+00  0.0000E+00  0.0000E+00
     -3.831  0.0000E+00  0.0000E+00  0.0000E+00  0.0000E+00
     -3.753  0.0000E+00  0.0000E+00  0.0000E+00  0.0000E+00
     -3.675  0.8758E-06  0.8481E-06  0.6839E-07  0.6623E-07
     -3.597  0.1815E-04  0.1758E-04  0.1486E-05  0.1439E-05
     -3.519  0.7836E-04  0.7589E-04  0.7605E-05  0.7366E-05
     -3.441  0.3849E-03  0.3729E-03  0.3767E-04  0.3648E-04
     -3.363  0.1787E-02  0.1732E-02  0.1772E-03  0.1717E-03
     -3.285  0.7612E-02  0.7401E-02  0.7716E-03  0.7497E-03
     -3.206  0.2548E-01  0.2495E-01  0.2762E-02  0.2698E-02
     -3.128  0.5581E-01  0.5518E-01  0.7120E-02  0.7007E-02
     -3.050  0.8277E-01  0.8224E-01  0.1358E-01  0.1343E-01
     -2.972  0.1132E+00  0.1125E+00  0.2242E-01  0.2222E-01
     -2.894  0.1322E+00  0.1322E+00  0.3274E-01  0.3254E-01
     -2.816  0.1313E+00  0.1311E+00  0.4300E-01  0.4277E-01
     -2.738  0.1646E+00  0.1638E+00  0.5586E-01  0.5556E-01
     -2.660  0.1855E+00  0.1855E+00  0.7035E-01  0.7006E-01
     -2.582  0.1829E+00  0.1828E+00  0.8464E-01  0.8434E-01
     -2.504  0.1989E+00  0.1986E+00  0.1002E+00  0.9986E-01
     -2.426  0.1908E+00  0.1911E+00  0.1151E+00  0.1148E+00
     -2.347  0.2074E+00  0.2063E+00  0.1313E+00  0.1309E+00
     -2.269  0.2575E+00  0.2570E+00  0.1514E+00  0.1510E+00
     -2.191  0.2610E+00  0.2611E+00  0.1718E+00  0.1714E+00
     -2.113  0.2550E+00  0.2553E+00  0.1917E+00  0.1913E+00
     -2.035  0.2174E+00  0.2183E+00  0.2087E+00  0.2084E+00
     -1.957  0.2193E+00  0.2182E+00  0.2258E+00  0.2254E+00
     -1.879  0.2995E+00  0.2979E+00  0.2493E+00  0.2487E+00
     -1.801  0.3270E+00  0.3274E+00  0.2748E+00  0.2743E+00
     -1.723  0.3136E+00  0.3134E+00  0.2993E+00  0.2988E+00
     -1.645  0.3084E+00  0.3093E+00  0.3234E+00  0.3230E+00
     -1.567  0.2507E+00  0.2513E+00  0.3430E+00  0.3426E+00
     -1.488  0.2843E+00  0.2827E+00  0.3652E+00  0.3647E+00
     -1.410  0.3446E+00  0.3441E+00  0.3922E+00  0.3916E+00
     -1.332  0.3390E+00  0.3394E+00  0.4186E+00  0.4181E+00
     -1.254  0.3277E+00  0.3278E+00  0.4443E+00  0.4438E+00
     -1.176  0.3237E+00  0.3236E+00  0.4696E+00  0.4690E+00
     -1.098  0.3750E+00  0.3732E+00  0.4989E+00  0.4982E+00
     -1.020  0.4157E+00  0.4162E+00  0.5313E+00  0.5307E+00
     -0.942  0.3657E+00  0.3664E+00  0.5599E+00  0.5594E+00
     -0.864  0.3595E+00  0.3596E+00  0.5880E+00  0.5875E+00
     -0.786  0.3109E+00  0.3125E+00  0.6123E+00  0.6119E+00
     -0.708  0.2844E+00  0.2833E+00  0.6345E+00  0.6340E+00
     -0.629  0.3972E+00  0.3946E+00  0.6656E+00  0.6649E+00
     -0.551  0.4598E+00  0.4596E+00  0.7015E+00  0.7008E+00
     -0.473  0.4689E+00  0.4683E+00  0.7382E+00  0.7374E+00
     -0.395  0.4746E+00  0.4756E+00  0.7753E+00  0.7746E+00
     -0.317  0.3969E+00  0.3983E+00  0.8062E+00  0.8057E+00
     -0.239  0.3674E+00  0.3675E+00  0.8350E+00  0.8344E+00
     -0.161  0.3726E+00  0.3724E+00  0.8641E+00  0.8635E+00
     -0.083  0.3953E+00  0.3944E+00  0.8950E+00  0.8943E+00
     -0.005  0.4408E+00  0.4404E+00  0.9295E+00  0.9288E+00
      0.073  0.4036E+00  0.4045E+00  0.9610E+00  0.9604E+00
      0.151  0.4455E+00  0.4431E+00  0.9958E+00  0.9950E+00
      0.230  0.5353E+00  0.5350E+00  0.1038E+01  0.1037E+01
      0.308  0.5107E+00  0.5112E+00  0.1078E+01  0.1077E+01
      0.386  0.4877E+00  0.4888E+00  0.1116E+01  0.1115E+01
      0.464  0.3980E+00  0.3998E+00  0.1147E+01  0.1146E+01
      0.542  0.4032E+00  0.4012E+00  0.1178E+01  0.1177E+01
      0.620  0.5343E+00  0.5321E+00  0.1220E+01  0.1219E+01
      0.698  0.5530E+00  0.5540E+00  0.1263E+01  0.1262E+01
      0.776  0.4975E+00  0.4986E+00  0.1302E+01  0.1301E+01
      0.854  0.4172E+00  0.4191E+00  0.1335E+01  0.1334E+01
      0.932  0.3912E+00  0.3899E+00  0.1365E+01  0.1365E+01
      1.010  0.4970E+00  0.4951E+00  0.1404E+01  0.1403E+01
      1.089  0.5381E+00  0.5381E+00  0.1446E+01  0.1445E+01
      1.167  0.5384E+00  0.5381E+00  0.1488E+01  0.1487E+01
      1.245  0.5441E+00  0.5444E+00  0.1531E+01  0.1530E+01
      1.323  0.5369E+00  0.5358E+00  0.1573E+01  0.1572E+01
      1.401  0.6686E+00  0.6659E+00  0.1625E+01  0.1624E+01
      1.479  0.6536E+00  0.6569E+00  0.1676E+01  0.1675E+01
      1.557  0.4664E+00  0.4691E+00  0.1713E+01  0.1712E+01
      1.635  0.4174E+00  0.4176E+00  0.1745E+01  0.1745E+01
      1.713  0.3856E+00  0.3862E+00  0.1775E+01  0.1775E+01
      1.791  0.4400E+00  0.4372E+00  0.1810E+01  0.1809E+01
      1.869  0.5952E+00  0.5928E+00  0.1856E+01  0.1855E+01
      1.948  0.6716E+00  0.6707E+00  0.1909E+01  0.1908E+01
      2.026  0.6811E+00  0.6824E+00  0.1962E+01  0.1961E+01
      2.104  0.5652E+00  0.5670E+00  0.2006E+01  0.2005E+01
      2.182  0.5770E+00  0.5754E+00  0.2051E+01  0.2050E+01
      2.260  0.6267E+00  0.6267E+00  0.2100E+01  0.2099E+01
      2.338  0.5996E+00  0.6001E+00  0.2147E+01  0.2146E+01
      2.416  0.6077E+00  0.6073E+00  0.2195E+01  0.2194E+01
      2.494  0.5591E+00  0.5616E+00  0.2238E+01  0.2237E+01
      2.572  0.4815E+00  0.4810E+00  0.2276E+01  0.2275E+01
      2.650  0.5861E+00  0.5838E+00  0.2322E+01  0.2321E+01
      2.728  0.6595E+00  0.6587E+00  0.2373E+01  0.2372E+01
      2.807  0.6822E+00  0.6826E+00  0.2427E+01  0.2426E+01
      2.885  0.5866E+00  0.5894E+00  0.2472E+01  0.2472E+01
      2.963  0.5241E+00  0.5233E+00  0.2513E+01  0.2512E+01
      3.041  0.6235E+00  0.6217E+00  0.2562E+01  0.2561E+01
      3.119  0.6444E+00  0.6448E+00  0.2612E+01  0.2611E+01
      3.197  0.6870E+00  0.6851E+00  0.2666E+01  0.2665E+01
      3.275  0.7079E+00  0.7098E+00  0.2721E+01  0.2720E+01
      3.353  0.5967E+00  0.5973E+00  0.2768E+01  0.2767E+01
      3.431  0.6721E+00  0.6700E+00  0.2821E+01  0.2819E+01
      3.509  0.7154E+00  0.7156E+00  0.2876E+01  0.2875E+01
      3.588  0.6883E+00  0.6885E+00  0.2930E+01  0.2929E+01
      3.666  0.6803E+00  0.6809E+00  0.2983E+01  0.2982E+01
      3.744  0.6205E+00  0.6211E+00  0.3032E+01  0.3031E+01
      3.822  0.6629E+00  0.6614E+00  0.3084E+01  0.3083E+01
      3.900  0.6930E+00  0.6935E+00  0.3138E+01  0.3137E+01
      3.978  0.6288E+00  0.6306E+00  0.3187E+01  0.3186E+01
      4.056  0.5246E+00  0.5263E+00  0.3228E+01  0.3227E+01
      4.134  0.5270E+00  0.5251E+00  0.3269E+01  0.3268E+01
      4.212  0.7330E+00  0.7284E+00  0.3327E+01  0.3325E+01
      4.290  0.8836E+00  0.8833E+00  0.3396E+01  0.3394E+01
      4.368  0.8223E+00  0.8234E+00  0.3460E+01  0.3459E+01
      4.447  0.8089E+00  0.8089E+00  0.3523E+01  0.3522E+01
      4.525  0.7742E+00  0.7750E+00  0.3584E+01  0.3582E+01
      4.603  0.7931E+00  0.7924E+00  0.3646E+01  0.3644E+01
      4.681  0.7650E+00  0.7664E+00  0.3705E+01  0.3704E+01
      4.759  0.6495E+00  0.6522E+00  0.3756E+01  0.3755E+01
      4.837  0.5742E+00  0.5744E+00  0.3801E+01  0.3800E+01
      4.915  0.6507E+00  0.6490E+00  0.3852E+01  0.3851E+01
      4.993  0.7860E+00  0.7832E+00  0.3913E+01  0.3912E+01
      5.071  0.8708E+00  0.8709E+00  0.3981E+01  0.3980E+01
      5.149  0.7926E+00  0.7939E+00  0.4043E+01  0.4042E+01
      5.227  0.7851E+00  0.7840E+00  0.4105E+01  0.4104E+01
      5.306  0.8383E+00  0.8388E+00  0.4170E+01  0.4169E+01
      5.384  0.7964E+00  0.7976E+00  0.4232E+01  0.4231E+01
      5.462  0.7661E+00  0.7660E+00  0.4292E+01  0.4291E+01
      5.540  0.7732E+00  0.7735E+00  0.4353E+01  0.4352E+01
      5.618  0.7361E+00  0.7368E+00  0.4410E+01  0.4409E+01
      5.696  0.6594E+00  0.6623E+00  0.4462E+01  0.4461E+01
      5.774  0.5453E+00  0.5460E+00  0.4504E+01  0.4504E+01
      5.852  0.6056E+00  0.6031E+00  0.4552E+01  0.4551E+01
      5.930  0.7094E+00  0.7077E+00  0.4607E+01  0.4606E+01
      6.008  0.7754E+00  0.7740E+00  0.4668E+01  0.4667E+01
      6.086  0.8526E+00  0.8522E+00  0.4734E+01  0.4733E+01
      6.165  0.8455E+00  0.8446E+00  0.4800E+01  0.4799E+01
      6.243  0.8343E+00  0.8346E+00  0.4866E+01  0.4864E+01
      6.321  0.7413E+00  0.7428E+00  0.4924E+01  0.4923E+01
      6.399  0.6714E+00  0.6724E+00  0.4976E+01  0.4975E+01
      6.477  0.6359E+00  0.6367E+00  0.5026E+01  0.5025E+01
      6.555  0.7015E+00  0.6988E+00  0.5081E+01  0.5079E+01
      6.633  0.8508E+00  0.8487E+00  0.5147E+01  0.5146E+01
      6.711  0.8370E+00  0.8396E+00  0.5213E+01  0.5211E+01
      6.789  0.6928E+00  0.6946E+00  0.5267E+01  0.5266E+01
      6.867  0.6622E+00  0.6614E+00  0.5318E+01  0.5317E+01
      6.945  0.7350E+00  0.7324E+00  0.5376E+01  0.5375E+01
      7.024  0.7767E+00  0.7773E+00  0.5437E+01  0.5435E+01
      7.102  0.7359E+00  0.7362E+00  0.5494E+01  0.5493E+01
      7.180  0.8042E+00  0.8008E+00  0.5557E+01  0.5556E+01
      7.258  0.9756E+00  0.9740E+00  0.5633E+01  0.5632E+01
      7.336  0.9636E+00  0.9648E+00  0.5708E+01  0.5707E+01
      7.414  0.9654E+00  0.9635E+00  0.5784E+01  0.5782E+01
      7.492  0.9113E+00  0.9139E+00  0.5855E+01  0.5854E+01
      7.570  0.7230E+00  0.7261E+00  0.5912E+01  0.5910E+01
      7.648  0.6711E+00  0.6720E+00  0.5964E+01  0.5963E+01
      7.726  0.7439E+00  0.7418E+00  0.6022E+01  0.6021E+01
      7.804  0.8017E+00  0.8017E+00  0.6085E+01  0.6084E+01
      7.883  0.6868E+00  0.6888E+00  0.6139E+01  0.6137E+01
      7.961  0.6913E+00  0.6895E+00  0.6193E+01  0.6191E+01
      8.039  0.8140E+00  0.8129E+00  0.6256E+01  0.6255E+01
      8.117  0.8378E+00  0.8369E+00  0.6322E+01  0.6320E+01
      8.195  0.9244E+00  0.9209E+00  0.6394E+01  0.6392E+01
      8.273  0.1025E+01  0.1024E+01  0.6474E+01  0.6472E+01
      8.351  0.9619E+00  0.9638E+00  0.6549E+01  0.6548E+01
      8.429  0.9630E+00  0.9624E+00  0.6624E+01  0.6623E+01
      8.507  0.8742E+00  0.8781E+00  0.6693E+01  0.6691E+01
      8.585  0.7105E+00  0.7115E+00  0.6748E+01  0.6747E+01
      8.663  0.7171E+00  0.7141E+00  0.6804E+01  0.6803E+01
      8.742  0.9055E+00  0.9011E+00  0.6875E+01  0.6873E+01
      8.820  0.9598E+00  0.9640E+00  0.6950E+01  0.6949E+01
      8.898  0.7621E+00  0.7666E+00  0.7010E+01  0.7009E+01
      8.976  0.8023E+00  0.7970E+00  0.7072E+01  0.7071E+01
      9.054  0.1002E+01  0.9986E+00  0.7151E+01  0.7149E+01
      9.132  0.9730E+00  0.9750E+00  0.7227E+01  0.7225E+01
      9.210  0.9880E+00  0.9868E+00  0.7304E+01  0.7302E+01
      9.288  0.9789E+00  0.9809E+00  0.7380E+01  0.7379E+01
      9.366  0.8607E+00  0.8626E+00  0.7448E+01  0.7446E+01
      9.444  0.7749E+00  0.7747E+00  0.7508E+01  0.7507E+01
      9.522  0.7826E+00  0.7792E+00  0.7569E+01  0.7568E+01
      9.601  0.9162E+00  0.9155E+00  0.7641E+01  0.7639E+01
      9.679  0.8913E+00  0.8960E+00  0.7711E+01  0.7709E+01
      9.757  0.8508E+00  0.8505E+00  0.7777E+01  0.7776E+01
      9.835  0.8412E+00  0.8403E+00  0.7843E+01  0.7841E+01
      9.913  0.7925E+00  0.7931E+00  0.7905E+01  0.7903E+01
      9.991  0.8246E+00  0.8228E+00  0.7969E+01  0.7968E+01
     10.069  0.9510E+00  0.9494E+00  0.8044E+01  0.8042E+01
     10.147  0.9929E+00  0.9907E+00  0.8121E+01  0.8119E+01
     10.225  0.1144E+01  0.1138E+01  0.8211E+01  0.8208E+01
     10.303  0.1222E+01  0.1222E+01  0.8306E+01  0.8304E+01
     10.381  0.1137E+01  0.1140E+01  0.8395E+01  0.8393E+01
     10.460  0.1054E+01  0.1056E+01  0.8477E+01  0.8475E+01
     10.538  0.9832E+00  0.9865E+00  0.8554E+01  0.8552E+01
     10.616  0.7914E+00  0.7961E+00  0.8616E+01  0.8615E+01
     10.694  0.6875E+00  0.6898E+00  0.8670E+01  0.8669E+01
     10.772  0.7519E+00  0.7497E+00  0.8729E+01  0.8727E+01
     10.850  0.8560E+00  0.8513E+00  0.8796E+01  0.8794E+01
     10.928  0.9364E+00  0.9347E+00  0.8869E+01  0.8867E+01
     11.006  0.9281E+00  0.9271E+00  0.8941E+01  0.8939E+01
     11.084  0.1062E+01  0.1057E+01  0.9024E+01  0.9022E+01
     11.162  0.1233E+01  0.1232E+01  0.9121E+01  0.9118E+01
     11.240  0.1193E+01  0.1197E+01  0.9214E+01  0.9212E+01
     11.319  0.9355E+00  0.9403E+00  0.9287E+01  0.9285E+01
     11.397  0.8415E+00  0.8421E+00  0.9353E+01  0.9351E+01
     11.475  0.8930E+00  0.8899E+00  0.9423E+01  0.9421E+01
     11.553  0.9699E+00  0.9697E+00  0.9498E+01  0.9497E+01
     11.631  0.8574E+00  0.8594E+00  0.9565E+01  0.9564E+01
     11.709  0.8779E+00  0.8761E+00  0.9634E+01  0.9632E+01
     11.787  0.9454E+00  0.9443E+00  0.9708E+01  0.9706E+01
     11.865  0.1187E+01  0.1178E+01  0.9801E+01  0.9798E+01
     11.943  0.1418E+01  0.1418E+01  0.9912E+01  0.9909E+01
     12.021  0.1267E+01  0.1272E+01  0.1001E+02  0.1001E+02
     12.099  0.1074E+01  0.1079E+01  0.1009E+02  0.1009E+02
     12.178  0.8996E+00  0.9015E+00  0.1016E+02  0.1016E+02
     12.256  0.9210E+00  0.9172E+00  0.1024E+02  0.1023E+02
     12.334  0.1102E+01  0.1098E+01  0.1032E+02  0.1032E+02
     12.412  0.1094E+01  0.1095E+01  0.1041E+02  0.1041E+02
     12.490  0.9335E+00  0.9358E+00  0.1048E+02  0.1048E+02
     12.568  0.7461E+00  0.7533E+00  0.1054E+02  0.1054E+02
     12.646  0.7686E+00  0.7646E+00  0.1060E+02  0.1060E+02
     12.724  0.1039E+01  0.1033E+01  0.1068E+02  0.1068E+02
     12.802  0.1047E+01  0.1052E+01  0.1076E+02  0.1076E+02
     12.880  0.8123E+00  0.8170E+00  0.1083E+02  0.1082E+02
     12.958  0.7370E+00  0.7328E+00  0.1088E+02  0.1088E+02
     13.037  0.8159E+00  0.8101E+00  0.1095E+02  0.1095E+02
     13.115  0.9053E+00  0.9054E+00  0.1102E+02  0.1102E+02
     13.193  0.8721E+00  0.8814E+00  0.1109E+02  0.1108E+02
     13.271  0.7711E+00  0.7768E+00  0.1115E+02  0.1115E+02
     13.349  0.7257E+00  0.7241E+00  0.1120E+02  0.1120E+02
     13.427  0.7489E+00  0.7492E+00  0.1126E+02  0.1126E+02
     13.505  0.5477E+00  0.5554E+00  0.1130E+02  0.1130E+02
     13.583  0.3092E+00  0.3123E+00  0.1133E+02  0.1133E+02
     13.661  0.2832E+00  0.2808E+00  0.1135E+02  0.1135E+02
     13.739  0.3340E+00  0.3318E+00  0.1138E+02  0.1138E+02
     13.817  0.3524E+00  0.3531E+00  0.1141E+02  0.1140E+02
     13.896  0.3909E+00  0.3936E+00  0.1144E+02  0.1143E+02
     13.974  0.4179E+00  0.4211E+00  0.1147E+02  0.1147E+02
     14.052  0.3444E+00  0.3439E+00  0.1150E+02  0.1149E+02
     14.130  0.2736E+00  0.2723E+00  0.1152E+02  0.1152E+02
     14.208  0.2647E+00  0.2615E+00  0.1154E+02  0.1154E+02
     14.286  0.3150E+00  0.3132E+00  0.1156E+02  0.1156E+02
     14.364  0.3414E+00  0.3432E+00  0.1159E+02  0.1159E+02
     14.442  0.2933E+00  0.2964E+00  0.1161E+02  0.1161E+02
     14.520  0.2855E+00  0.2844E+00  0.1163E+02  0.1163E+02
     14.598  0.3312E+00  0.3305E+00  0.1166E+02  0.1166E+02
     14.676  0.2625E+00  0.2649E+00  0.1168E+02  0.1168E+02
     14.755  0.1744E+00  0.1746E+00  0.1169E+02  0.1169E+02
     14.833  0.1749E+00  0.1742E+00  0.1171E+02  0.1171E+02
     14.911  0.2032E+00  0.2039E+00  0.1172E+02  0.1172E+02
     14.989  0.1941E+00  0.1954E+00  0.1174E+02  0.1174E+02
     15.067  0.1892E+00  0.1892E+00  0.1175E+02  0.1175E+02
     15.145  0.1898E+00  0.1902E+00  0.1177E+02  0.1177E+02
     15.223  0.1737E+00  0.1745E+00  0.1178E+02  0.1178E+02
     15.301  0.1337E+00  0.1345E+00  0.1179E+02  0.1179E+02
     15.379  0.1278E+00  0.1263E+00  0.1180E+02  0.1180E+02
     15.457  0.1992E+00  0.1968E+00  0.1182E+02  0.1182E+02
     15.535  0.2413E+00  0.2408E+00  0.1184E+02  0.1184E+02
     15.614  0.1996E+00  0.2021E+00  0.1185E+02  0.1185E+02
     15.692  0.9192E-01  0.9480E-01  0.1186E+02  0.1186E+02
     15.770  0.3335E-01  0.3361E-01  0.1186E+02  0.1186E+02
     15.848  0.4378E-01  0.4045E-01  0.1187E+02  0.1187E+02
     15.926  0.1263E+00  0.1149E+00  0.1188E+02  0.1187E+02
     16.004  0.2258E+00  0.2088E+00  0.1189E+02  0.1189E+02
     16.082  0.1942E+00  0.2010E+00  0.1191E+02  0.1191E+02
     16.160  0.7990E-01  0.9733E-01  0.1191E+02  0.1191E+02
     16.238  0.2559E-01  0.3201E-01  0.1192E+02  0.1192E+02
     16.316  0.2836E-01  0.2898E-01  0.1192E+02  0.1192E+02
     16.394  0.8484E-01  0.8263E-01  0.1193E+02  0.1192E+02
     16.473  0.1580E+00  0.1571E+00  0.1194E+02  0.1194E+02
     16.551  0.1218E+00  0.1241E+00  0.1195E+02  0.1195E+02
     16.629  0.5203E-01  0.5361E-01  0.1195E+02  0.1195E+02
     16.707  0.1831E-01  0.1883E-01  0.1195E+02  0.1195E+02
     16.785  0.1585E-01  0.1551E-01  0.1195E+02  0.1195E+02
     16.863  0.4617E-01  0.4469E-01  0.1196E+02  0.1196E+02
     16.941  0.9888E-01  0.9790E-01  0.1197E+02  0.1196E+02
     17.019  0.8176E-01  0.8338E-01  0.1197E+02  0.1197E+02
     17.097  0.2906E-01  0.3017E-01  0.1197E+02  0.1197E+02
     17.175  0.7149E-02  0.7421E-02  0.1197E+02  0.1197E+02
     17.254  0.2253E-02  0.2122E-02  0.1197E+02  0.1197E+02
     17.332  0.3423E-02  0.2512E-02  0.1197E+02  0.1197E+02
     17.410  0.1425E-01  0.1083E-01  0.1198E+02  0.1198E+02
     17.488  0.4049E-01  0.3451E-01  0.1198E+02  0.1198E+02
     17.566  0.4965E-01  0.5180E-01  0.1198E+02  0.1198E+02
     17.644  0.2341E-01  0.2909E-01  0.1198E+02  0.1198E+02
     17.722  0.7003E-02  0.9186E-02  0.1199E+02  0.1199E+02
     17.800  0.5112E-02  0.5914E-02  0.1199E+02  0.1199E+02
     17.878  0.1579E-01  0.1702E-01  0.1199E+02  0.1199E+02
     17.956  0.4440E-01  0.4638E-01  0.1199E+02  0.1199E+02
     18.034  0.6114E-01  0.6020E-01  0.1200E+02  0.1200E+02
     18.113  0.4041E-01  0.3848E-01  0.1200E+02  0.1200E+02
     18.191  0.1529E-01  0.1479E-01  0.1200E+02  0.1200E+02
     18.269  0.3917E-02  0.3836E-02  0.1200E+02  0.1200E+02
     18.347  0.8628E-03  0.8478E-03  0.1200E+02  0.1200E+02
     18.425  0.1200E-03  0.1253E-03  0.1200E+02  0.1200E+02
     18.503  0.0000E+00  0.0000E+00  0.1200E+02  0.1200E+02
     18.581  0.0000E+00  0.0000E+00  0.1200E+02  0.1200E+02
     18.659  0.0000E+00  0.0000E+00  0.1200E+02  0.1200E+02
     18.737  0.0000E+00  0.0000E+00  0.1200E+02  0.1200E+02
     18.815  0.0000E+00  0.0000E+00  0.1200E+02  0.1200E+02
     18.893  0.0000E+00  0.0000E+00  0.1200E+02  0.1200E+02
     18.972  0.0000E+00  0.0000E+00  0.1200E+02  0.1200E+02
     19.050  0.0000E+00  0.0000E+00  0.1200E+02  0.1200E+02
     19.128  0.0000E+00  0.0000E+00  0.1200E+02  0.1200E+02
     19.12769785     -4.29973110  301      7.69867685      1.00000000
     -4.300  0.0000E+00  0.0000E+00  0.0000E+00  0.0000E+00  0.0000E+00  0.0000E+00  0.0000E+00  0.0000E+00  0.0000E+00  0.0000E+00  0.0000E+00  0.0000E+00  0.0000E+00  0.0000E+00  0.0000E+00  0.0000E+00  0.0000E+00  0.0000E+00
     -4.222  0.0000E+00  0.0000E+00  0.0000E+00  0.0000E+00  0.0000E+00  0.0000E+00  0.0000E+00  0.0000E+00  0.0000E+00  0.0000E+00  0.0000E+00  0.0000E+00  0.0000E+00  0.0000E+00  0.0000E+00  0.0000E+00  0.0000E+00  0.0000E+00
     -4.144  0.0000E+00  0.0000E+00  0.0000E+00  0.0000E+00  0.0000E+00  0.0000E+00  0.0000E+00  0.0000E+00  0.0000E+00  0.0000E+00  0.0000E+00  0.0000E+00  0.0000E+00  0.0000E+00  0.0000E+00  0.0000E+00  0.0000E+00  0.0000E+00
     -4.065  0.0000E+00  0.0000E+00  0.0000E+00  0.0000E+00  0.0000E+00  0.0000E+00  0.0000E+00  0.0000E+00  0.0000E+00  0.0000E+00  0.0000E+00  0.0000E+00  0.0000E+00  0.0000E+00  0.0000E+00  0.0000E+00  0.0000E+00  0.0000E+00
     -3.987  0.0000E+00  0.0000E+00  0.0000E+00  0.0000E+00  0.0000E+00  0.0000E+00  0.0000E+00  0.0000E+00  0.0000E+00  0.0000E+00  0.0000E+00  0.0000E+00  0.0000E+00  0.0000E+00  0.0000E+00  0.0000E+00  0.0000E+00  0.0000E+00
     -3.909  0.0000E+00  0.0000E+00  0.0000E+00  0.0000E+00  0.0000E+00  0.0000E+00  0.0000E+00  0.0000E+00  0.0000E+00  0.0000E+00  0.0000E+00  0.0000E+00  0.0000E+00  0.0000E+00  0.0000E+00  0.0000E+00  0.0000E+00  0.0000E+00
     -3.831  0.0000E+00  0.0000E+00  0.0000E+00  0.0000E+00  0.0000E+00  0.0000E+00  0.0000E+00  0.0000E+00  0.0000E+00  0.0000E+00  0.0000E+00  0.0000E+00  0.0000E+00  0.0000E+00  0.0000E+00  0.0000E+00  0.0000E+00  0.0000E+00
     -3.753  0.0000E+00  0.0000E+00  0.0000E+00  0.0000E+00  0.0000E+00  0.0000E+00  0.0000E+00  0.0000E+00  0.0000E+00  0.0000E+00  0.0000E+00  0.0000E+00  0.0000E+00  0.0000E+00  0.0000E+00  0.0000E+00  0.0000E+00  0.0000E+00
     -3.675  0.5816E-07  0.5627E-07  0.5277E-24  0.2396E-22  0.5277E-24  0.2396E-22  0.5277E-24  0.2396E-22  0.0000E+00  0.0000E+00  0.0000E+00  0.0000E+00  0.0000E+00  0.0000E+00  0.0000E+00  0.0000E+00  0.0000E+00  0.0000E+00
     -3.597  0.1200E-05  0.1161E-05  0.1832E-08  0.1774E-08  0.1832E-08  0.1774E-08  0.1832E-08  0.1774E-08  0.0000E+00  0.0000E+00  0.0000E+00  0.0000E+00  0.0000E+00  0.0000E+00  0.0000E+00  0.0000E+00  0.0000E+00  0.0000E+00
     -3.519  0.5179E-05  0.5010E-05  0.8672E-08  0.8395E-08  0.8672E-08  0.8395E-08  0.8672E-08  0.8395E-08  0.0000E+00  0.0000E+00  0.0000E+00  0.0000E+00  0.0000E+00  0.0000E+00  0.0000E+00  0.0000E+00  0.0000E+00  0.0000E+00
     -3.441  0.2542E-04  0.2460E-04  0.4756E-07  0.4605E-07  0.4756E-07  0.4605E-07  0.4756E-07  0.4605E-07  0.0000E+00  0.0000E+00  0.0000E+00  0.0000E+00  0.0000E+00  0.0000E+00  0.0000E+00  0.0000E+00  0.0000E+00  0.0000E+00
     -3.363  0.1180E-03  0.1143E-03  0.2264E-06  0.2192E-06  0.2264E-06  0.2192E-06  0.2264E-06  0.2192E-06  0.0000E+00  0.0000E+00  0.0000E+00  0.0000E+00  0.0000E+00  0.0000E+00  0.0000E+00  0.0000E+00  0.0000E+00  0.0000E+00
     -3.285  0.5025E-03  0.4881E-03  0.1019E-05  0.9887E-06  0.1019E-05  0.9887E-06  0.1019E-05  0.9887E-06  0.0000E+00  0.0000E+00  0.0000E+00  0.0000E+00  0.0000E+00  0.0000E+00  0.0000E+00  0.0000E+00  0.0000E+00  0.0000E+00
     -3.206  0.1680E-02  0.1644E-02  0.4015E-05  0.3912E-05  0.4015E-05  0.3912E-05  0.4015E-05  0.3912E-05  0.0000E+00  0.0000E+00  0.0000E+00  0.0000E+00  0.0000E+00  0.0000E+00  0.0000E+00  0.0000E+00  0.0000E+00  0.0000E+00
     -3.128  0.3672E-02  0.3627E-02  0.1159E-04  0.1138E-04  0.1159E-04  0.1138E-04  0.1159E-04  0.1138E-04  0.0000E+00  0.0000E+00  0.0000E+00  0.0000E+00  0.0000E+00  0.0000E+00  0.0000E+00  0.0000E+00  0.0000E+00  0.0000E+00
     -3.050  0.5423E-02  0.5385E-02  0.2484E-04  0.2448E-04  0.2484E-04  0.2448E-04  0.2484E-04  0.2448E-04  0.0000E+00  0.0000E+00  0.0000E+00  0.0000E+00  0.0000E+00  0.0000E+00  0.0000E+00  0.0000E+00  0.0000E+00  0.0000E+00
     -2.972  0.7379E-02  0.7328E-02  0.4695E-04  0.4642E-04  0.4695E-04  0.4642E-04  0.4695E-04  0.4642E-04  0.0000E+00  0.0000E+00  0.0000E+00  0.0000E+00  0.0000E+00  0.0000E+00  0.0000E+00  0.0000E+00  0.0000E+00  0.0000E+00
     -2.894  0.8581E-02  0.8573E-02  0.6713E-04  0.6683E-04  0.6713E-04  0.6683E-04  0.6713E-04  0.6683E-04  0.0000E+00  0.0000E+00  0.0000E+00  0.0000E+00  0.0000E+00  0.0000E+00  0.0000E+00  0.0000E+00  0.0000E+00  0.0000E+00
     -2.816  0.8473E-02  0.8448E-02  0.8504E-04  0.8438E-04  0.8504E-04  0.8438E-04  0.8504E-04  0.8438E-04  0.0000E+00  0.0000E+00  0.0000E+00  0.0000E+00  0.0000E+00  0.0000E+00  0.0000E+00  0.0000E+00  0.0000E+00  0.0000E+00
     -2.738  0.1055E-01  0.1049E-01  0.1295E-03  0.1285E-03  0.1295E-03  0.1285E-03  0.1295E-03  0.1285E-03  0.0000E+00  0.0000E+00  0.0000E+00  0.0000E+00  0.0000E+00  0.0000E+00  0.0000E+00  0.0000E+00  0.0000E+00  0.0000E+00
     -2.660  0.1184E-01  0.1182E-01  0.1646E-03  0.1642E-03  0.1646E-03  0.1642E-03  0.1646E-03  0.1642E-03  0.0000E+00  0.0000E+00  0.0000E+00  0.0000E+00  0.0000E+00  0.0000E+00  0.0000E+00  0.0000E+00  0.0000E+00  0.0000E+00
     -2.582  0.1160E-01  0.1159E-01  0.1853E-03  0.1846E-03  0.1853E-03  0.1846E-03  0.1853E-03  0.1846E-03  0.0000E+00  0.0000E+00  0.0000E+00  0.0000E+00  0.0000E+00  0.0000E+00  0.0000E+00  0.0000E+00  0.0000E+00  0.0000E+00
     -2.504  0.1254E-01  0.1251E-01  0.2269E-03  0.2261E-03  0.2269E-03  0.2261E-03  0.2269E-03  0.2261E-03  0.0000E+00  0.0000E+00  0.0000E+00  0.0000E+00  0.0000E+00  0.0000E+00  0.0000E+00  0.0000E+00  0.0000E+00  0.0000E+00
     -2.426  0.1196E-01  0.1198E-01  0.2395E-03  0.2393E-03  0.2395E-03  0.2393E-03  0.2395E-03  0.2393E-03  0.0000E+00  0.0000E+00  0.0000E+00  0.0000E+00  0.0000E+00  0.0000E+00  0.0000E+00  0.0000E+00  0.0000E+00  0.0000E+00
     -2.347  0.1290E-01  0.1282E-01  0.2942E-03  0.2919E-03  0.2942E-03  0.2919E-03  0.2942E-03  0.2919E-03  0.0000E+00  0.0000E+00  0.0000E+00  0.0000E+00  0.0000E+00  0.0000E+00  0.0000E+00  0.0000E+00  0.0000E+00  0.0000E+00
     -2.269  0.1594E-01  0.1589E-01  0.3928E-03  0.3914E-03  0.3928E-03  0.3914E-03  0.3928E-03  0.3914E-03  0.0000E+00  0.0000E+00  0.0000E+00  0.0000E+00  0.0000E+00  0.0000E+00  0.0000E+00  0.0000E+00  0.0000E+00  0.0000E+00
     -2.191  0.1607E-01  0.1607E-01  0.4259E-03  0.4253E-03  0.4259E-03  0.4253E-03  0.4259E-03  0.4253E-03  0.0000E+00  0.0000E+00  0.0000E+00  0.0000E+00  0.0000E+00  0.0000E+00  0.0000E+00  0.0000E+00  0.0000E+00  0.0000E+00
     -2.113  0.1561E-01  0.1562E-01  0.4448E-03  0.4447E-03  0.4448E-03  0.4447E-03  0.4448E-03  0.4447E-03  0.0000E+00  0.0000E+00  0.0000E+00  0.0000E+00  0.0000E+00  0.0000E+00  0.0000E+00  0.0000E+00  0.0000E+00  0.0000E+00
     -2.035  0.1324E-01  0.1328E-01  0.4043E-03  0.4051E-03  0.4043E-03  0.4051E-03  0.4043E-03  0.4051E-03  0.0000E+00  0.0000E+00  0.0000E+00  0.0000E+00  0.0000E+00  0.0000E+00  0.0000E+00  0.0000E+00  0.0000E+00  0.0000E+00
     -1.957  0.1324E-01  0.1316E-01  0.4464E-03  0.4432E-03  0.4464E-03  0.4432E-03  0.4464E-03  0.4432E-03  0.0000E+00  0.0000E+00  0.0000E+00  0.0000E+00  0.0000E+00  0.0000E+00  0.0000E+00  0.0000E+00  0.0000E+00  0.0000E+00
     -1.879  0.1797E-01  0.1786E-01  0.6472E-03  0.6430E-03  0.6472E-03  0.6430E-03  0.6472E-03  0.6430E-03  0.0000E+00  0.0000E+00  0.0000E+00  0.0000E+00  0.0000E+00  0.0000E+00  0.0000E+00  0.0000E+00  0.0000E+00  0.0000E+00
     -1.801  0.1953E-01  0.1954E-01  0.7350E-03  0.7349E-03  0.7350E-03  0.7349E-03  0.7350E-03  0.7349E-03  0.0000E+00  0.0000E+00  0.0000E+00  0.0000E+00  0.0000E+00  0.0000E+00  0.0000E+00  0.0000E+00  0.0000E+00  0.0000E+00
     -1.723  0.1861E-01  0.1858E-01  0.7432E-03  0.7417E-03  0.7432E-03  0.7417E-03  0.7432E-03  0.7417E-03  0.0000E+00  0.0000E+00  0.0000E+00  0.0000E+00  0.0000E+00  0.0000E+00  0.0000E+00  0.0000E+00  0.0000E+00  0.0000E+00
     -1.645  0.1821E-01  0.1824E-01  0.7624E-03  0.7638E-03  0.7624E-03  0.7638E-03  0.7624E-03  0.7638E-03  0.0000E+00  0.0000E+00  0.0000E+00  0.0000E+00  0.0000E+00  0.0000E+00  0.0000E+00  0.0000E+00  0.0000E+00  0.0000E+00
     -1.567  0.1470E-01  0.1473E-01  0.6515E-03  0.6519E-03  0.6515E-03  0.6519E-03  0.6515E-03  0.6519E-03  0.0000E+00  0.0000E+00  0.0000E+00  0.0000E+00  0.0000E+00  0.0000E+00  0.0000E+00  0.0000E+00  0.0000E+00  0.0000E+00
     -1.488  0.1653E-01  0.1643E-01  0.7844E-03  0.7791E-03  0.7844E-03  0.7791E-03  0.7844E-03  0.7791E-03  0.0000E+00  0.0000E+00  0.0000E+00  0.0000E+00  0.0000E+00  0.0000E+00  0.0000E+00  0.0000E+00  0.0000E+00  0.0000E+00
     -1.410  0.1994E-01  0.1989E-01  0.9856E-03  0.9830E-03  0.9856E-03  0.9830E-03  0.9856E-03  0.9830E-03  0.0000E+00  0.0000E+00  0.0000E+00  0.0000E+00  0.0000E+00  0.0000E+00  0.0000E+00  0.0000E+00  0.0000E+00  0.0000E+00
     -1.332  0.1950E-01  0.1951E-01  0.1005E-02  0.1005E-02  0.1005E-02  0.1005E-02  0.1005E-02  0.1005E-02  0.0000E+00  0.0000E+00  0.0000E+00  0.0000E+00  0.0000E+00  0.0000E+00  0.0000E+00  0.0000E+00  0.0000E+00  0.0000E+00
     -1.254  0.1872E-01  0.1871E-01  0.1014E-02  0.1013E-02  0.1014E-02  0.1013E-02  0.1014E-02  0.1013E-02  0.0000E+00  0.0000E+00  0.0000E+00  0.0000E+00  0.0000E+00  0.0000E+00  0.0000E+00  0.0000E+00  0.0000E+00  0.0000E+00
     -1.176  0.1837E-01  0.1834E-01  0.1043E-02  0.1041E-02  0.1043E-02  0.1041E-02  0.1043E-02  0.1041E-02  0.0000E+00  0.0000E+00  0.0000E+00  0.0000E+00  0.0000E+00  0.0000E+00  0.0000E+00  0.0000E+00  0.0000E+00  0.0000E+00
     -1.098  0.2112E-01  0.2100E-01  0.1258E-02  0.1251E-02  0.1258E-02  0.1251E-02  0.1258E-02  0.1251E-02  0.0000E+00  0.0000E+00  0.0000E+00  0.0000E+00  0.0000E+00  0.0000E+00  0.0000E+00  0.0000E+00  0.0000E+00  0.0000E+00
     -1.020  0.2331E-01  0.2331E-01  0.1429E-02  0.1429E-02  0.1429E-02  0.1429E-02  0.1429E-02  0.1429E-02  0.0000E+00  0.0000E+00  0.0000E+00  0.0000E+00  0.0000E+00  0.0000E+00  0.0000E+00  0.0000E+00  0.0000E+00  0.0000E+00
     -0.942  0.2038E-01  0.2040E-01  0.1296E-02  0.1297E-02  0.1296E-02  0.1297E-02  0.1296E-02  0.1297E-02  0.0000E+00  0.0000E+00  0.0000E+00  0.0000E+00  0.0000E+00  0.0000E+00  0.0000E+00  0.0000E+00  0.0000E+00  0.0000E+00
     -0.864  0.1990E-01  0.1988E-01  0.1318E-02  0.1318E-02  0.1318E-02  0.1318E-02  0.1318E-02  0.1318E-02  0.0000E+00  0.0000E+00  0.0000E+00  0.0000E+00  0.0000E+00  0.0000E+00  0.0000E+00  0.0000E+00  0.0000E+00  0.0000E+00
     -0.786  0.1711E-01  0.1718E-01  0.1171E-02  0.1176E-02  0.1171E-02  0.1176E-02  0.1171E-02  0.1176E-02  0.0000E+00  0.0000E+00  0.0000E+00  0.0000E+00  0.0000E+00  0.0000E+00  0.0000E+00  0.0000E+00  0.0000E+00  0.0000E+00
     -0.708  0.1550E-01  0.1543E-01  0.1120E-02  0.1114E-02  0.1120E-02  0.1114E-02  0.1120E-02  0.1114E-02  0.0000E+00  0.0000E+00  0.0000E+00  0.0000E+00  0.0000E+00  0.0000E+00  0.0000E+00  0.0000E+00  0.0000E+00  0.0000E+00
     -0.629  0.2148E-01  0.2132E-01  0.1615E-02  0.1604E-02  0.1615E-02  0.1604E-02  0.1615E-02  0.1604E-02  0.0000E+00  0.0000E+00  0.0000E+00  0.0000E+00  0.0000E+00  0.0000E+00  0.0000E+00  0.0000E+00  0.0000E+00  0.0000E+00
     -0.551  0.2474E-01  0.2471E-01  0.1910E-02  0.1908E-02  0.1910E-02  0.1908E-02  0.1910E-02  0.1908E-02  0.0000E+00  0.0000E+00  0.0000E+00  0.0000E+00  0.0000E+00  0.0000E+00  0.0000E+00  0.0000E+00  0.0000E+00  0.0000E+00
     -0.473  0.2505E-01  0.2500E-01  0.2003E-02  0.1998E-02  0.2003E-02  0.1998E-02  0.2003E-02  0.1998E-02  0.0000E+00  0.0000E+00  0.0000E+00  0.0000E+00  0.0000E+00  0.0000E+00  0.0000E+00  0.0000E+00  0.0000E+00  0.0000E+00
     -0.395  0.2522E-01  0.2524E-01  0.2073E-02  0.2075E-02  0.2073E-02  0.2075E-02  0.2073E-02  0.2075E-02  0.0000E+00  0.0000E+00  0.0000E+00  0.0000E+00  0.0000E+00  0.0000E+00  0.0000E+00  0.0000E+00  0.0000E+00  0.0000E+00