   4   4   1   0
  0.1283359E+02  0.3716517E-09  0.3716517E-09  0.3716517E-09  0.5000000E-15
  1.000000000000000E-004
  CAR 
 unknown system                          
     23.45319540     -3.08155270  301     10.64699597      1.00000000
     -3.082  0.0000E+00  0.0000E+00  0.0000E+00  0.0000E+00
     -2.993  0.0000E+00  0.0000E+00  0.0000E+00  0.0000E+00
     -2.905  0.0000E+00  0.0000E+00  0.0000E+00  0.0000E+00
     -2.816  0.0000E+00  0.0000E+00  0.0000E+00  0.0000E+00
     -2.728  0.0000E+00  0.0000E+00  0.0000E+00  0.0000E+00
     -2.639  0.0000E+00  0.0000E+00  0.0000E+00  0.0000E+00
     -2.551  0.0000E+00  0.0000E+00  0.0000E+00  0.0000E+00
     -2.462  0.0000E+00  0.0000E+00  0.0000E+00  0.0000E+00
     -2.374  0.0000E+00  0.0000E+00  0.0000E+00  0.0000E+00
     -2.286  0.1148E-03  0.1114E-03  0.1015E-04  0.9850E-05
     -2.197  0.5575E-03  0.5409E-03  0.5947E-04  0.5770E-04
     -2.109  0.3240E-02  0.3145E-02  0.3461E-03  0.3358E-03
     -2.020  0.1804E-01  0.1753E-01  0.1941E-02  0.1886E-02
     -1.932  0.8062E-01  0.7892E-01  0.9072E-02  0.8867E-02
     -1.843  0.1719E+00  0.1714E+00  0.2428E-01  0.2402E-01
     -1.755  0.1099E+00  0.1118E+00  0.3400E-01  0.3391E-01
     -1.666  0.2863E-01  0.2940E-01  0.3653E-01  0.3651E-01
     -1.578  0.8116E-02  0.8187E-02  0.3725E-01  0.3724E-01
     -1.489  0.1765E-01  0.1720E-01  0.3881E-01  0.3876E-01
     -1.401  0.8989E-01  0.8750E-01  0.4678E-01  0.4652E-01
     -1.313  0.3427E+00  0.3370E+00  0.7709E-01  0.7632E-01
     -1.224  0.5116E+00  0.5135E+00  0.1223E+00  0.1217E+00
     -1.136  0.2303E+00  0.2353E+00  0.1427E+00  0.1426E+00
     -1.047  0.5159E-01  0.5301E-01  0.1473E+00  0.1472E+00
     -0.959  0.1444E-01  0.1456E-01  0.1486E+00  0.1485E+00
     -0.870  0.3058E-01  0.2971E-01  0.1514E+00  0.1513E+00
     -0.782  0.1530E+00  0.1493E+00  0.1650E+00  0.1645E+00
     -0.693  0.4520E+00  0.4474E+00  0.2049E+00  0.2041E+00
     -0.605  0.4380E+00  0.4428E+00  0.2437E+00  0.2433E+00
     -0.517  0.1427E+00  0.1462E+00  0.2563E+00  0.2562E+00
     -0.428  0.3048E-01  0.3123E-01  0.2590E+00  0.2590E+00
     -0.340  0.1897E-01  0.1872E-01  0.2607E+00  0.2606E+00
     -0.251  0.7792E-01  0.7580E-01  0.2677E+00  0.2674E+00
     -0.163  0.3414E+00  0.3346E+00  0.2979E+00  0.2970E+00
     -0.074  0.6923E+00  0.6909E+00  0.3591E+00  0.3581E+00
      0.014  0.4189E+00  0.4263E+00  0.3961E+00  0.3958E+00
      0.103  0.1058E+00  0.1086E+00  0.4055E+00  0.4054E+00
      0.191  0.2689E-01  0.2723E-01  0.4079E+00  0.4078E+00
      0.280  0.4728E-01  0.4614E-01  0.4121E+00  0.4119E+00
      0.368  0.2296E+00  0.2239E+00  0.4324E+00  0.4318E+00
      0.456  0.7889E+00  0.7783E+00  0.5022E+00  0.5006E+00
      0.545  0.9722E+00  0.9789E+00  0.5882E+00  0.5872E+00
      0.633  0.3743E+00  0.3828E+00  0.6213E+00  0.6211E+00
      0.722  0.7934E-01  0.8150E-01  0.6283E+00  0.6283E+00
      0.810  0.2236E-01  0.2253E-01  0.6303E+00  0.6303E+00
      0.899  0.4808E-01  0.4678E-01  0.6348E+00  0.6347E+00
      0.987  0.2211E+00  0.2164E+00  0.6544E+00  0.6538E+00
      1.076  0.5077E+00  0.5054E+00  0.6993E+00  0.6985E+00
      1.164  0.3534E+00  0.3589E+00  0.7305E+00  0.7302E+00
      1.252  0.9567E-01  0.9810E-01  0.7390E+00  0.7389E+00
      1.341  0.2476E-01  0.2507E-01  0.7412E+00  0.7411E+00
      1.429  0.4375E-01  0.4272E-01  0.7450E+00  0.7449E+00
      1.518  0.2143E+00  0.2090E+00  0.7640E+00  0.7635E+00
      1.606  0.7598E+00  0.7492E+00  0.8312E+00  0.8297E+00
      1.695  0.9897E+00  0.9954E+00  0.9188E+00  0.9178E+00
      1.783  0.3985E+00  0.4071E+00  0.9540E+00  0.9538E+00
      1.872  0.8867E-01  0.9085E-01  0.9619E+00  0.9618E+00
      1.960  0.4214E-01  0.4182E-01  0.9656E+00  0.9655E+00
      2.048  0.1521E+00  0.1481E+00  0.9793E+00  0.9789E+00
      2.137  0.6908E+00  0.6770E+00  0.1040E+01  0.1039E+01
      2.225  0.1535E+01  0.1529E+01  0.1176E+01  0.1174E+01
      2.314  0.1028E+01  0.1044E+01  0.1267E+01  0.1266E+01
      2.402  0.2702E+00  0.2770E+00  0.1291E+01  0.1291E+01
      2.491  0.5455E-01  0.5583E-01  0.1296E+01  0.1296E+01
      2.579  0.3345E-01  0.3305E-01  0.1299E+01  0.1299E+01
      2.668  0.1275E+00  0.1246E+00  0.1310E+01  0.1310E+01
      2.756  0.4162E+00  0.4114E+00  0.1347E+01  0.1346E+01
      2.845  0.4709E+00  0.4745E+00  0.1389E+01  0.1388E+01
      2.933  0.1707E+00  0.1745E+00  0.1404E+01  0.1404E+01
      3.021  0.3977E-01  0.4055E-01  0.1407E+01  0.1407E+01
      3.110  0.3586E-01  0.3525E-01  0.1410E+01  0.1410E+01
      3.198  0.1630E+00  0.1590E+00  0.1425E+01  0.1425E+01
      3.287  0.6781E+00  0.6667E+00  0.1485E+01  0.1484E+01
      3.375  0.1217E+01  0.1218E+01  0.1593E+01  0.1591E+01
      3.464  0.6505E+00  0.6619E+00  0.1650E+01  0.1650E+01
      3.552  0.1571E+00  0.1609E+00  0.1664E+01  0.1664E+01
      3.641  0.5012E-01  0.5031E-01  0.1669E+01  0.1668E+01
      3.729  0.1296E+00  0.1267E+00  0.1680E+01  0.1680E+01
      3.817  0.5941E+00  0.5825E+00  0.1733E+01  0.1731E+01
      3.906  0.1483E+01  0.1475E+01  0.1864E+01  0.1862E+01
      3.994  0.1143E+01  0.1157E+01  0.1965E+01  0.1964E+01
      4.083  0.3243E+00  0.3316E+00  0.1994E+01  0.1993E+01
      4.171  0.6990E-01  0.7125E-01  0.2000E+01  0.2000E+01
      4.260  0.5980E-01  0.5891E-01  0.2005E+01  0.2005E+01
      4.348  0.2534E+00  0.2481E+00  0.2028E+01  0.2027E+01
      4.437  0.8298E+00  0.8211E+00  0.2101E+01  0.2100E+01
      4.525  0.9439E+00  0.9504E+00  0.2185E+01  0.2184E+01
      4.614  0.3441E+00  0.3508E+00  0.2215E+01  0.2215E+01
      4.702  0.8320E-01  0.8458E-01  0.2222E+01  0.2222E+01
      4.790  0.8871E-01  0.8737E-01  0.2230E+01  0.2230E+01
      4.879  0.3815E+00  0.3744E+00  0.2264E+01  0.2263E+01
      4.967  0.1179E+01  0.1168E+01  0.2368E+01  0.2367E+01
      5.056  0.1399E+01  0.1406E+01  0.2492E+01  0.2491E+01
      5.144  0.5702E+00  0.5803E+00  0.2543E+01  0.2542E+01
      5.233  0.1318E+00  0.1343E+00  0.2554E+01  0.2554E+01
      5.321  0.7633E-01  0.7570E-01  0.2561E+01  0.2561E+01
      5.410  0.2842E+00  0.2789E+00  0.2587E+01  0.2586E+01
      5.498  0.1004E+01  0.9922E+00  0.2675E+01  0.2674E+01
      5.586  0.1478E+01  0.1481E+01  0.2806E+01  0.2805E+01
      5.675  0.7310E+00  0.7420E+00  0.2871E+01  0.2870E+01
      5.763  0.1791E+00  0.1826E+00  0.2887E+01  0.2886E+01
      5.852  0.8221E-01  0.8194E-01  0.2894E+01  0.2894E+01
      5.940  0.2676E+00  0.2634E+00  0.2918E+01  0.2917E+01
      6.029  0.8452E+00  0.8385E+00  0.2992E+01  0.2991E+01
      6.117  0.9313E+00  0.9368E+00  0.3075E+01  0.3074E+01
      6.206  0.3306E+00  0.3359E+00  0.3104E+01  0.3104E+01
      6.294  0.7190E-01  0.7311E-01  0.3110E+01  0.3110E+01
      6.383  0.4073E-01  0.4063E-01  0.3114E+01  0.3114E+01
      6.471  0.1462E+00  0.1447E+00  0.3127E+01  0.3127E+01
      6.559  0.4460E+00  0.4440E+00  0.3167E+01  0.3166E+01
      6.648  0.4679E+00  0.4691E+00  0.3208E+01  0.3208E+01
      6.736  0.2565E+00  0.2549E+00  0.3231E+01  0.3230E+01
      6.825  0.4195E+00  0.4134E+00  0.3268E+01  0.3267E+01
      6.913  0.5911E+00  0.5932E+00  0.3320E+01  0.3319E+01
      7.002  0.6600E+00  0.6596E+00  0.3379E+01  0.3378E+01
      7.090  0.1590E+01  0.1581E+01  0.3519E+01  0.3518E+01
      7.179  0.1959E+01  0.1964E+01  0.3692E+01  0.3691E+01
      7.267  0.8725E+00  0.8793E+00  0.3770E+01  0.3769E+01
      7.355  0.5191E+00  0.5157E+00  0.3816E+01  0.3815E+01
      7.444  0.5977E+00  0.5995E+00  0.3869E+01  0.3868E+01
      7.532  0.4797E+00  0.4831E+00  0.3912E+01  0.3911E+01
      7.621  0.5734E+00  0.5743E+00  0.3962E+01  0.3962E+01
      7.709  0.3617E+00  0.3631E+00  0.3994E+01  0.3994E+01
      7.798  0.2455E+00  0.2421E+00  0.4016E+01  0.4016E+01
      7.886  0.6720E+00  0.6613E+00  0.4076E+01  0.4074E+01
      7.975  0.1142E+01  0.1143E+01  0.4177E+01  0.4175E+01
      8.063  0.9688E+00  0.9754E+00  0.4262E+01  0.4262E+01
      8.151  0.1141E+01  0.1142E+01  0.4363E+01  0.4363E+01
      8.240  0.7063E+00  0.7105E+00  0.4426E+01  0.4425E+01
      8.328  0.2146E+00  0.2153E+00  0.4445E+01  0.4445E+01
      8.417  0.1639E+00  0.1625E+00  0.4460E+01  0.4459E+01
      8.505  0.1715E+00  0.1726E+00  0.4475E+01  0.4475E+01
      8.594  0.8087E-01  0.8208E-01  0.4482E+01  0.4482E+01
      8.682  0.1128E+00  0.1119E+00  0.4492E+01  0.4492E+01
      8.771  0.4744E+00  0.4696E+00  0.4534E+01  0.4533E+01
      8.859  0.1252E+01  0.1244E+01  0.4645E+01  0.4643E+01
      8.948  0.1544E+01  0.1539E+01  0.4781E+01  0.4780E+01
      9.036  0.1154E+01  0.1163E+01  0.4883E+01  0.4882E+01
      9.124  0.4038E+00  0.4114E+00  0.4919E+01  0.4919E+01
      9.213  0.1573E+00  0.1582E+00  0.4933E+01  0.4933E+01
      9.301  0.3274E+00  0.3249E+00  0.4962E+01  0.4962E+01
      9.390  0.5201E+00  0.5206E+00  0.5008E+01  0.5008E+01
      9.478  0.2612E+00  0.2638E+00  0.5031E+01  0.5031E+01
      9.567  0.9091E-01  0.9150E-01  0.5039E+01  0.5039E+01
      9.655  0.1880E+00  0.1870E+00  0.5056E+01  0.5056E+01
      9.744  0.7280E+00  0.7244E+00  0.5121E+01  0.5120E+01
      9.832  0.1397E+01  0.1394E+01  0.5244E+01  0.5243E+01
      9.920  0.1216E+01  0.1216E+01  0.5352E+01  0.5351E+01
     10.009  0.8626E+00  0.8627E+00  0.5428E+01  0.5427E+01
     10.097  0.4882E+00  0.4915E+00  0.5471E+01  0.5471E+01
     10.186  0.2696E+00  0.2661E+00  0.5495E+01  0.5495E+01
     10.274  0.6203E+00  0.6087E+00  0.5550E+01  0.5549E+01
     10.363  0.1266E+01  0.1268E+01  0.5662E+01  0.5661E+01
     10.451  0.1288E+01  0.1296E+01  0.5776E+01  0.5776E+01
     10.540  0.9088E+00  0.9024E+00  0.5857E+01  0.5855E+01
     10.628  0.1308E+01  0.1293E+01  0.5973E+01  0.5970E+01
     10.717  0.1323E+01  0.1334E+01  0.6090E+01  0.6088E+01
     10.805  0.5252E+00  0.5408E+00  0.6136E+01  0.6136E+01
     10.893  0.1297E+00  0.1337E+00  0.6148E+01  0.6148E+01
     10.982  0.1153E+00  0.1142E+00  0.6158E+01  0.6158E+01
     11.070  0.3556E+00  0.3514E+00  0.6190E+01  0.6189E+01
     11.159  0.5112E+00  0.5129E+00  0.6235E+01  0.6235E+01
     11.247  0.2440E+00  0.2474E+00  0.6257E+01  0.6257E+01
     11.336  0.1823E+00  0.1821E+00  0.6273E+01  0.6273E+01
     11.424  0.5761E+00  0.5727E+00  0.6324E+01  0.6323E+01
     11.513  0.1059E+01  0.1058E+01  0.6418E+01  0.6417E+01
     11.601  0.6589E+00  0.6579E+00  0.6476E+01  0.6475E+01
     11.689  0.5511E+00  0.5350E+00  0.6525E+01  0.6523E+01
     11.778  0.1213E+01  0.1195E+01  0.6632E+01  0.6628E+01
     11.866  0.1365E+01  0.1383E+01  0.6753E+01  0.6751E+01
     11.955  0.5674E+00  0.5853E+00  0.6803E+01  0.6802E+01
     12.043  0.1820E+00  0.1859E+00  0.6819E+01  0.6819E+01
     12.132  0.3310E+00  0.3277E+00  0.6848E+01  0.6848E+01
     12.220  0.9281E+00  0.9228E+00  0.6931E+01  0.6930E+01
     12.309  0.1015E+01  0.1019E+01  0.7021E+01  0.7020E+01
     12.397  0.8637E+00  0.8650E+00  0.7097E+01  0.7097E+01
     12.485  0.1139E+01  0.1138E+01  0.7198E+01  0.7197E+01
     12.574  0.7864E+00  0.7787E+00  0.7267E+01  0.7266E+01
     12.662  0.1000E+01  0.9731E+00  0.7356E+01  0.7352E+01
     12.751  0.1572E+01  0.1575E+01  0.7495E+01  0.7492E+01
     12.839  0.8609E+00  0.8877E+00  0.7571E+01  0.7570E+01
     12.928  0.2504E+00  0.2589E+00  0.7593E+01  0.7593E+01
     13.016  0.2477E+00  0.2478E+00  0.7615E+01  0.7615E+01
     13.105  0.5051E+00  0.5042E+00  0.7660E+01  0.7660E+01
     13.193  0.3669E+00  0.3688E+00  0.7693E+01  0.7693E+01
     13.282  0.1051E+00  0.1060E+00  0.7702E+01  0.7702E+01
     13.370  0.4658E-01  0.4654E-01  0.7706E+01  0.7706E+01
     13.458  0.1539E+00  0.1528E+00  0.7720E+01  0.7720E+01
     13.547  0.6152E+00  0.6119E+00  0.7774E+01  0.7774E+01
     13.635  0.1077E+01  0.1076E+01  0.7870E+01  0.7869E+01
     13.724  0.7235E+00  0.7171E+00  0.7934E+01  0.7933E+01
     13.812  0.8665E+00  0.8451E+00  0.8010E+01  0.8007E+01
     13.901  0.1287E+01  0.1286E+01  0.8124E+01  0.8121E+01
     13.989  0.1272E+01  0.1274E+01  0.8237E+01  0.8234E+01
     14.078  0.1052E+01  0.1068E+01  0.8330E+01  0.8329E+01
     14.166  0.3782E+00  0.3908E+00  0.8364E+01  0.8363E+01
     14.254  0.1340E+00  0.1350E+00  0.8376E+01  0.8375E+01
     14.343  0.3295E+00  0.3211E+00  0.8405E+01  0.8404E+01
     14.431  0.1011E+01  0.9958E+00  0.8494E+01  0.8492E+01
     14.520  0.1427E+01  0.1416E+01  0.8621E+01  0.8617E+01
     14.608  0.1596E+01  0.1557E+01  0.8762E+01  0.8755E+01
     14.697  0.1310E+01  0.1336E+01  0.8878E+01  0.8873E+01
     14.785  0.5223E+00  0.5595E+00  0.8924E+01  0.8923E+01
     14.874  0.2656E+00  0.2749E+00  0.8948E+01  0.8947E+01
     14.962  0.1837E+00  0.1863E+00  0.8964E+01  0.8964E+01
     15.051  0.2892E+00  0.2858E+00  0.8990E+01  0.8989E+01
     15.139  0.1075E+01  0.1063E+01  0.9085E+01  0.9083E+01
     15.227  0.2080E+01  0.2076E+01  0.9269E+01  0.9267E+01
     15.316  0.1527E+01  0.1523E+01  0.9404E+01  0.9402E+01
     15.404  0.1200E+01  0.1182E+01  0.9510E+01  0.9506E+01
     15.493  0.9610E+00  0.9819E+00  0.9595E+01  0.9593E+01
     15.581  0.3109E+00  0.3279E+00  0.9623E+01  0.9623E+01
     15.670  0.6175E-01  0.6575E-01  0.9629E+01  0.9629E+01
     15.758  0.1704E-01  0.1758E-01  0.9630E+01  0.9630E+01
     15.847  0.3724E-01  0.3615E-01  0.9634E+01  0.9633E+01
     15.935  0.2035E+00  0.1980E+00  0.9652E+01  0.9651E+01
     16.023  0.8448E+00  0.8300E+00  0.9726E+01  0.9724E+01
     16.112  0.1568E+01  0.1568E+01  0.9865E+01  0.9863E+01
     16.200  0.1043E+01  0.1042E+01  0.9957E+01  0.9955E+01
     16.289  0.9046E+00  0.8641E+00  0.1004E+02  0.1003E+02
     16.377  0.1408E+01  0.1384E+01  0.1016E+02  0.1015E+02
     16.466  0.1451E+01  0.1456E+01  0.1029E+02  0.1028E+02
     16.554  0.9672E+00  0.1015E+01  0.1038E+02  0.1037E+02
     16.643  0.2882E+00  0.3156E+00  0.1040E+02  0.1040E+02
     16.731  0.6185E-01  0.7072E-01  0.1041E+02  0.1041E+02
     16.820  0.6786E-01  0.6324E-01  0.1041E+02  0.1041E+02
     16.908  0.3091E+00  0.2824E+00  0.1044E+02  0.1044E+02
     16.996  0.1100E+01  0.1046E+01  0.1054E+02  0.1053E+02
     17.085  0.1566E+01  0.1584E+01  0.1068E+02  0.1067E+02
     17.173  0.1079E+01  0.1096E+01  0.1077E+02  0.1077E+02
     17.262  0.1362E+01  0.1344E+01  0.1089E+02  0.1089E+02
     17.350  0.1336E+01  0.1368E+01  0.1101E+02  0.1101E+02
     17.439  0.5598E+00  0.5881E+00  0.1106E+02  0.1106E+02
     17.527  0.1413E+00  0.1468E+00  0.1107E+02  0.1107E+02
     17.616  0.1038E+00  0.9191E-01  0.1108E+02  0.1108E+02
     17.704  0.3246E+00  0.2876E+00  0.1111E+02  0.1111E+02
     17.792  0.5312E+00  0.5339E+00  0.1116E+02  0.1115E+02
     17.881  0.3199E+00  0.3502E+00  0.1119E+02  0.1118E+02
     17.969  0.3060E+00  0.3067E+00  0.1121E+02  0.1121E+02
     18.058  0.3470E+00  0.3539E+00  0.1124E+02  0.1124E+02
     18.146  0.1612E+00  0.1702E+00  0.1126E+02  0.1126E+02
     18.235  0.1652E+00  0.1557E+00  0.1127E+02  0.1127E+02
     18.323  0.5767E+00  0.5413E+00  0.1132E+02  0.1132E+02
     18.412  0.1047E+01  0.1045E+01  0.1142E+02  0.1141E+02
     18.500  0.5842E+00  0.6200E+00  0.1147E+02  0.1147E+02
     18.588  0.2310E+00  0.2397E+00  0.1149E+02  0.1149E+02
     18.677  0.4668E+00  0.4544E+00  0.1153E+02  0.1153E+02
     18.765  0.1020E+01  0.1013E+01  0.1162E+02  0.1162E+02
     18.854  0.7062E+00  0.7237E+00  0.1168E+02  0.1168E+02
     18.942  0.1889E+00  0.1968E+00  0.1170E+02  0.1170E+02
     19.031  0.3551E-01  0.3715E-01  0.1170E+02  0.1170E+02
     19.119  0.7003E-02  0.7223E-02  0.1170E+02  0.1170E+02
     19.208  0.5043E-02  0.4634E-02  0.1170E+02  0.1170E+02
     19.296  0.2729E-01  0.2523E-01  0.1171E+02  0.1171E+02
     19.385  0.1077E+00  0.1023E+00  0.1172E+02  0.1172E+02
     19.473  0.1724E+00  0.1735E+00  0.1173E+02  0.1173E+02
     19.561  0.8255E-01  0.8756E-01  0.1174E+02  0.1174E+02
     19.650  0.1862E-01  0.2018E-01  0.1174E+02  0.1174E+02
     19.738  0.3351E-02  0.3648E-02  0.1174E+02  0.1174E+02
     19.827  0.0000E+00  0.0000E+00  0.1174E+02  0.1174E+02
     19.915  0.0000E+00  0.0000E+00  0.1174E+02  0.1174E+02
     20.004  0.3715E-03  0.3499E-03  0.1174E+02  0.1174E+02
     20.092  0.1804E-02  0.1699E-02  0.1174E+02  0.1174E+02
     20.181  0.1048E-01  0.9875E-02  0.1174E+02  0.1174E+02
     20.269  0.5809E-01  0.5492E-01  0.1175E+02  0.1175E+02
     20.357  0.2549E+00  0.2446E+00  0.1177E+02  0.1177E+02
     20.446  0.5190E+00  0.5165E+00  0.1182E+02  0.1181E+02
     20.534  0.3152E+00  0.3265E+00  0.1184E+02  0.1184E+02
     20.623  0.7881E-01  0.8320E-01  0.1185E+02  0.1185E+02
     20.711  0.1452E-01  0.1540E-01  0.1185E+02  0.1185E+02
     20.800  0.2668E-02  0.2815E-02  0.1185E+02  0.1185E+02
     20.888  0.7716E-03  0.7368E-03  0.1185E+02  0.1185E+02
     20.977  0.4506E-02  0.4304E-02  0.1185E+02  0.1185E+02
     21.065  0.2579E-01  0.2466E-01  0.1185E+02  0.1185E+02
     21.154  0.1322E+00  0.1271E+00  0.1187E+02  0.1187E+02
     21.242  0.4235E+00  0.4156E+00  0.1190E+02  0.1190E+02
     21.330  0.4648E+00  0.4712E+00  0.1194E+02  0.1194E+02
     21.419  0.1642E+00  0.1704E+00  0.1196E+02  0.1196E+02
     21.507  0.3325E-01  0.3476E-01  0.1196E+02  0.1196E+02
     21.596  0.5852E-02  0.6126E-02  0.1196E+02  0.1196E+02
     21.684  0.0000E+00  0.0000E+00  0.1196E+02  0.1196E+02
     21.773  0.3423E-04  0.3171E-04  0.1196E+02  0.1196E+02
     21.861  0.1664E-03  0.1542E-03  0.1196E+02  0.1196E+02
     21.950  0.9734E-03  0.9022E-03  0.1196E+02  0.1196E+02
     22.038  0.5619E-02  0.5214E-02  0.1196E+02  0.1196E+02
     22.126  0.3013E-01  0.2814E-01  0.1197E+02  0.1197E+02
     22.215  0.1146E+00  0.1098E+00  0.1198E+02  0.1198E+02
     22.303  0.1704E+00  0.1719E+00  0.1199E+02  0.1199E+02
     22.392  0.7636E-01  0.8062E-01  0.1200E+02  0.1200E+02
     22.480  0.1679E-01  0.1804E-01  0.1200E+02  0.1200E+02
     22.569  0.3005E-02  0.3240E-02  0.1200E+02  0.1200E+02
     22.657  0.0000E+00  0.0000E+00  0.1200E+02  0.1200E+02
     22.746  0.0000E+00  0.0000E+00  0.1200E+02  0.1200E+02
     22.834  0.0000E+00  0.0000E+00  0.1200E+02  0.1200E+02
     22.923  0.0000E+00  0.0000E+00  0.1200E+02  0.1200E+02
     23.011  0.0000E+00  0.0000E+00  0.1200E+02  0.1200E+02
     23.099  0.0000E+00  0.0000E+00  0.1200E+02  0.1200E+02
     23.188  0.0000E+00  0.0000E+00  0.1200E+02  0.1200E+02
     23.276  0.0000E+00  0.0000E+00  0.1200E+02  0.1200E+02
     23.365  0.0000E+00  0.0000E+00  0.1200E+02  0.1200E+02
     23.453  0.0000E+00  0.0000E+00  0.1200E+02  0.1200E+02
     23.45319540     -3.08155270  301     10.64699597      1.00000000
     -3.082  0.0000E+00  0.0000E+00  0.0000E+00  0.0000E+00  0.0000E+00  0.0000E+00  0.0000E+00  0.0000E+00  0.0000E+00  0.0000E+00  0.0000E+00  0.0000E+00  0.0000E+00  0.0000E+00  0.0000E+00  0.0000E+00  0.0000E+00  0.0000E+00
     -2.993  0.0000E+00  0.0000E+00  0.0000E+00  0.0000E+00  0.0000E+00  0.0000E+00  0.0000E+00  0.0000E+00  0.0000E+00  0.0000E+00  0.0000E+00  0.0000E+00  0.0000E+00  0.0000E+00  0.0000E+00  0.0000E+00  0.0000E+00  0.0000E+00
     -2.905  0.0000E+00  0.0000E+00  0.0000E+00  0.0000E+00  0.0000E+00  0.0000E+00  0.0000E+00  0.0000E+00  0.0000E+00  0.0000E+00  0.0000E+00  0.0000E+00  0.0000E+00  0.0000E+00  0.0000E+00  0.0000E+00  0.0000E+00  0.0000E+00
     -2.816  0.0000E+00  0.0000E+00  0.0000E+00  0.0000E+00  0.0000E+00  0.0000E+00  0.0000E+00  0.0000E+00  0.0000E+00  0.0000E+00  0.0000E+00  0.0000E+00  0.0000E+00  0.0000E+00  0.0000E+00  0.0000E+00  0.0000E+00  0.0000E+00
     -2.728  0.0000E+00  0.0000E+00  0.0000E+00  0.0000E+00  0.0000E+00  0.0000E+00  0.0000E+00  0.0000E+00  0.0000E+00  0.0000E+00  0.0000E+00  0.0000E+00  0.0000E+00  0.0000E+00  0.0000E+00  0.0000E+00  0.0000E+00  0.0000E+00
     -2.639  0.0000E+00  0.0000E+00  0.0000E+00  0.0000E+00  0.0000E+00  0.0000E+00  0.0000E+00  0.0000E+00  0.0000E+00  0.0000E+00  0.0000E+00  0.0000E+00  0.0000E+00  0.0000E+00  0.0000E+00  0.0000E+00  0.0000E+00  0.0000E+00
     -2.551  0.0000E+00  0.0000E+00  0.0000E+00  0.0000E+00  0.0000E+00  0.0000E+00  0.0000E+00  0.0000E+00  0.0000E+00  0.0000E+00  0.0000E+00  0.0000E+00  0.0000E+00  0.0000E+00  0.0000E+00  0.0000E+00  0.0000E+00  0.0000E+00
     -2.462  0.0000E+00  0.0000E+00  0.0000E+00  0.0000E+00  0.0000E+00  0.0000E+00  0.0000E+00  0.0000E+00  0.0000E+00  0.0000E+00  0.0000E+00  0.0000E+00  0.0000E+00  0.0000E+00  0.0000E+00  0.0000E+00  0.0000E+00  0.0000E+00
     -2.374  0.0000E+00  0.0000E+00  0.0000E+00  0.0000E+00  0.0000E+00  0.0000E+00  0.0000E+00  0.0000E+00  0.0000E+00  0.0000E+00  0.0000E+00  0.0000E+00  0.0000E+00  0.0000E+00  0.0000E+00  0.0000E+00  0.0000E+00  0.0000E+00
     -2.286  0.9135E-05  0.8856E-05  0.5386E-07  0.5224E-07  0.5386E-07  0.5224E-07  0.5386E-07  0.5224E-07  0.0000E+00  0.0000E+00  0.0000E+00  0.0000E+00  0.0000E+00  0.0000E+00  0.0000E+00  0.0000E+00  0.0000E+00  0.0000E+00
     -2.197  0.4437E-04  0.4302E-04  0.2616E-06  0.2537E-06  0.2616E-06  0.2537E-06  0.2616E-06  0.2537E-06  0.0000E+00  0.0000E+00  0.0000E+00  0.0000E+00  0.0000E+00  0.0000E+00  0.0000E+00  0.0000E+00  0.0000E+00  0.0000E+00
     -2.109  0.2579E-03  0.2501E-03  0.1520E-05  0.1475E-05  0.1520E-05  0.1475E-05  0.1520E-05  0.1475E-05  0.0000E+00  0.0000E+00  0.0000E+00  0.0000E+00  0.0000E+00  0.0000E+00  0.0000E+00  0.0000E+00  0.0000E+00  0.0000E+00
     -2.020  0.1435E-02  0.1394E-02  0.8463E-05  0.8223E-05  0.8463E-05  0.8223E-05  0.8463E-05  0.8223E-05  0.0000E+00  0.0000E+00  0.0000E+00  0.0000E+00  0.0000E+00  0.0000E+00  0.0000E+00  0.0000E+00  0.0000E+00  0.0000E+00
     -1.932  0.6416E-02  0.6276E-02  0.3783E-04  0.3702E-04  0.3783E-04  0.3702E-04  0.3783E-04  0.3702E-04  0.0000E+00  0.0000E+00  0.0000E+00  0.0000E+00  0.0000E+00  0.0000E+00  0.0000E+00  0.0000E+00  0.0000E+00  0.0000E+00
     -1.843  0.1368E-01  0.1363E-01  0.8066E-04  0.8038E-04  0.8066E-04  0.8038E-04  0.8066E-04  0.8038E-04  0.0000E+00  0.0000E+00  0.0000E+00  0.0000E+00  0.0000E+00  0.0000E+00  0.0000E+00  0.0000E+00  0.0000E+00  0.0000E+00
     -1.755  0.8747E-02  0.8892E-02  0.5170E-04  0.5257E-04  0.5170E-04  0.5257E-04  0.5170E-04  0.5257E-04  0.0000E+00  0.0000E+00  0.0000E+00  0.0000E+00  0.0000E+00  0.0000E+00  0.0000E+00  0.0000E+00  0.0000E+00  0.0000E+00
     -1.666  0.2277E-02  0.2336E-02  0.1404E-04  0.1438E-04  0.1404E-04  0.1438E-04  0.1404E-04  0.1438E-04  0.0000E+00  0.0000E+00  0.0000E+00  0.0000E+00  0.0000E+00  0.0000E+00  0.0000E+00  0.0000E+00  0.0000E+00  0.0000E+00
     -1.578  0.6349E-03  0.6405E-03  0.7359E-05  0.7285E-05  0.7359E-05  0.7285E-05  0.7359E-05  0.7285E-05  0.0000E+00  0.0000E+00  0.0000E+00  0.0000E+00  0.0000E+00  0.0000E+00  0.0000E+00  0.0000E+00  0.0000E+00  0.0000E+00
     -1.489  0.1342E-02  0.1306E-02  0.2878E-04  0.2796E-04  0.2878E-04  0.2796E-04  0.2878E-04  0.2796E-04  0.0000E+00  0.0000E+00  0.0000E+00  0.0000E+00  0.0000E+00  0.0000E+00  0.0000E+00  0.0000E+00  0.0000E+00  0.0000E+00
     -1.401  0.6815E-02  0.6629E-02  0.1522E-03  0.1481E-03  0.1522E-03  0.1481E-03  0.1522E-03  0.1481E-03  0.0000E+00  0.0000E+00  0.0000E+00  0.0000E+00  0.0000E+00  0.0000E+00  0.0000E+00  0.0000E+00  0.0000E+00  0.0000E+00
     -1.313  0.2598E-01  0.2553E-01  0.5801E-03  0.5703E-03  0.5801E-03  0.5703E-03  0.5801E-03  0.5703E-03  0.0000E+00  0.0000E+00  0.0000E+00  0.0000E+00  0.0000E+00  0.0000E+00  0.0000E+00  0.0000E+00  0.0000E+00  0.0000E+00
     -1.224  0.3879E-01  0.3890E-01  0.8661E-03  0.8690E-03  0.8661E-03  0.8690E-03  0.8661E-03  0.8690E-03  0.0000E+00  0.0000E+00  0.0000E+00  0.0000E+00  0.0000E+00  0.0000E+00  0.0000E+00  0.0000E+00  0.0000E+00  0.0000E+00
     -1.136  0.1746E-01  0.1783E-01  0.3901E-03  0.3985E-03  0.3901E-03  0.3985E-03  0.3901E-03  0.3985E-03  0.0000E+00  0.0000E+00  0.0000E+00  0.0000E+00  0.0000E+00  0.0000E+00  0.0000E+00  0.0000E+00  0.0000E+00  0.0000E+00
     -1.047  0.3908E-02  0.4013E-02  0.8841E-04  0.9077E-04  0.8841E-04  0.9077E-04  0.8841E-04  0.9077E-04  0.0000E+00  0.0000E+00  0.0000E+00  0.0000E+00  0.0000E+00  0.0000E+00  0.0000E+00  0.0000E+00  0.0000E+00  0.0000E+00
     -0.959  0.1075E-02  0.1083E-02  0.3077E-04  0.3077E-04  0.3077E-04  0.3077E-04  0.3077E-04  0.3077E-04  0.0000E+00  0.0000E+00  0.0000E+00  0.0000E+00  0.0000E+00  0.0000E+00  0.0000E+00  0.0000E+00  0.0000E+00  0.0000E+00
     -0.870  0.2205E-02  0.2141E-02  0.8782E-04  0.8530E-04  0.8782E-04  0.8530E-04  0.8782E-04  0.8530E-04  0.0000E+00  0.0000E+00  0.0000E+00  0.0000E+00  0.0000E+00  0.0000E+00  0.0000E+00  0.0000E+00  0.0000E+00  0.0000E+00
     -0.782  0.1103E-01  0.1076E-01  0.4394E-03  0.4286E-03  0.4394E-03  0.4286E-03  0.4394E-03  0.4286E-03  0.0000E+00  0.0000E+00  0.0000E+00  0.0000E+00  0.0000E+00  0.0000E+00  0.0000E+00  0.0000E+00  0.0000E+00  0.0000E+00
     -0.693  0.3260E-01  0.3224E-01  0.1298E-02  0.1285E-02  0.1298E-02  0.1285E-02  0.1298E-02  0.1285E-02  0.0000E+00  0.0000E+00  0.0000E+00  0.0000E+00  0.0000E+00  0.0000E+00  0.0000E+00  0.0000E+00  0.0000E+00  0.0000E+00
     -0.605  0.3159E-01  0.3191E-01  0.1258E-02  0.1271E-02  0.1258E-02  0.1271E-02  0.1258E-02  0.1271E-02  0.0000E+00  0.0000E+00  0.0000E+00  0.0000E+00  0.0000E+00  0.0000E+00  0.0000E+00  0.0000E+00  0.0000E+00  0.0000E+00
     -0.517  0.1029E-01  0.1053E-01  0.4104E-03  0.4204E-03  0.4104E-03  0.4204E-03  0.4104E-03  0.4204E-03  0.0000E+00  0.0000E+00  0.0000E+00  0.0000E+00  0.0000E+00  0.0000E+00  0.0000E+00  0.0000E+00  0.0000E+00  0.0000E+00
     -0.428  0.2189E-02  0.2242E-02  0.9034E-04  0.9239E-04  0.9034E-04  0.9239E-04  0.9034E-04  0.9239E-04  0.0000E+00  0.0000E+00  0.0000E+00  0.0000E+00  0.0000E+00  0.0000E+00  0.0000E+00  0.0000E+00  0.0000E+00  0.0000E+00
     -0.340  0.1317E-02  0.1299E-02  0.7069E-04  0.6946E-04  0.7069E-04  0.6946E-04  0.7069E-04  0.6946E-04  0.0000E+00  0.0000E+00  0.0000E+00  0.0000E+00  0.0000E+00  0.0000E+00  0.0000E+00  0.0000E+00  0.0000E+00  0.0000E+00
     -0.251  0.5333E-02  0.5183E-02  0.3135E-03  0.3049E-03  0.3135E-03  0.3049E-03  0.3135E-03  0.3049E-03  0.0000E+00  0.0000E+00  0.0000E+00  0.0000E+00  0.0000E+00  0.0000E+00  0.0000E+00  0.0000E+00  0.0000E+00  0.0000E+00
     -0.163  0.2337E-01  0.2288E-01  0.1374E-02  0.1346E-02  0.1374E-02  0.1346E-02  0.1374E-02  0.1346E-02  0.0000E+00  0.0000E+00  0.0000E+00  0.0000E+00  0.0000E+00  0.0000E+00  0.0000E+00  0.0000E+00  0.0000E+00  0.0000E+00
     -0.074  0.4738E-01  0.4724E-01  0.2786E-02  0.2779E-02  0.2786E-02  0.2779E-02  0.2786E-02  0.2779E-02  0.0000E+00  0.0000E+00  0.0000E+00  0.0000E+00  0.0000E+00  0.0000E+00  0.0000E+00  0.0000E+00  0.0000E+00  0.0000E+00
      0.014  0.2867E-01  0.2915E-01  0.1686E-02  0.1715E-02  0.1686E-02  0.1715E-02  0.1686E-02  0.1715E-02  0.0000E+00  0.0000E+00  0.0000E+00  0.0000E+00  0.0000E+00  0.0000E+00  0.0000E+00  0.0000E+00  0.0000E+00  0.0000E+00
      0.103  0.7234E-02  0.7419E-02  0.4270E-03  0.4381E-03  0.4270E-03  0.4381E-03  0.4270E-03  0.4381E-03  0.0000E+00  0.0000E+00  0.0000E+00  0.0000E+00  0.0000E+00  0.0000E+00  0.0000E+00  0.0000E+00  0.0000E+00  0.0000E+00
      0.191  0.1812E-02  0.1835E-02  0.1166E-03  0.1177E-03  0.1166E-03  0.1177E-03  0.1166E-03  0.1177E-03  0.0000E+00  0.0000E+00  0.0000E+00  0.0000E+00  0.0000E+00  0.0000E+00  0.0000E+00  0.0000E+00  0.0000E+00  0.0000E+00
      0.280  0.3077E-02  0.3001E-02  0.2386E-03  0.2326E-03  0.2386E-03  0.2326E-03  0.2386E-03  0.2326E-03  0.0000E+00  0.0000E+00  0.0000E+00  0.0000E+00  0.0000E+00  0.0000E+00  0.0000E+00  0.0000E+00  0.0000E+00  0.0000E+00
      0.368  0.1488E-01  0.1450E-01  0.1177E-02  0.1147E-02  0.1177E-02  0.1147E-02  0.1177E-02  0.1147E-02  0.0000E+00  0.0000E+00  0.0000E+00  0.0000E+00  0.0000E+00  0.0000E+00  0.0000E+00  0.0000E+00  0.0000E+00  0.0000E+00
      0.456  0.5114E-01  0.5040E-01  0.4043E-02  0.3987E-02  0.4043E-02  0.3987E-02  0.4043E-02  0.3987E-02  0.0000E+00  0.0000E+00  0.0000E+00  0.0000E+00  0.0000E+00  0.0000E+00  0.0000E+00  0.0000E+00  0.0000E+00  0.0000E+00
      0.545  0.6302E-01  0.6339E-01  0.4983E-02  0.5015E-02  0.4983E-02  0.5015E-02  0.4983E-02  0.5015E-02  0.0000E+00  0.0000E+00  0.0000E+00  0.0000E+00  0.0000E+00  0.0000E+00  0.0000E+00  0.0000E+00  0.0000E+00  0.0000E+00
      0.633  0.2426E-01  0.2479E-01  0.1919E-02  0.1962E-02  0.1919E-02  0.1962E-02  0.1919E-02  0.1962E-02  0.0000E+00  0.0000E+00  0.0000E+00  0.0000E+00  0.0000E+00  0.0000E+00  0.0000E+00  0.0000E+00  0.0000E+00  0.0000E+00
      0.722  0.5138E-02  0.5273E-02  0.4082E-03  0.4191E-03  0.4082E-03  0.4191E-03  0.4082E-03  0.4191E-03  0.0000E+00  0.0000E+00  0.0000E+00  0.0000E+00  0.0000E+00  0.0000E+00  0.0000E+00  0.0000E+00  0.0000E+00  0.0000E+00
      0.810  0.1419E-02  0.1429E-02  0.1239E-03  0.1244E-03  0.1239E-03  0.1244E-03  0.1239E-03  0.1244E-03  0.0000E+00  0.0000E+00  0.0000E+00  0.0000E+00  0.0000E+00  0.0000E+00  0.0000E+00  0.0000E+00  0.0000E+00  0.0000E+00
      0.899  0.2942E-02  0.2860E-02  0.2982E-03  0.2901E-03  0.2982E-03  0.2901E-03  0.2982E-03  0.2901E-03  0.0000E+00  0.0000E+00  0.0000E+00  0.0000E+00  0.0000E+00  0.0000E+00  0.0000E+00  0.0000E+00  0.0000E+00  0.0000E+00
      0.987  0.1353E-01  0.1323E-01  0.1371E-02  0.1342E-02  0.1371E-02  0.1342E-02  0.1371E-02  0.1342E-02  0.0000E+00  0.0000E+00  0.0000E+00  0.0000E+00  0.0000E+00  0.0000E+00  0.0000E+00  0.0000E+00  0.0000E+00  0.0000E+00
      1.076  0.3107E-01  0.3089E-01  0.3149E-02  0.3133E-02  0.3149E-02  0.3133E-02  0.3149E-02  0.3133E-02  0.0000E+00  0.0000E+00  0.0000E+00  0.0000E+00  0.0000E+00  0.0000E+00  0.0000E+00  0.0000E+00  0.0000E+00  0.0000E+00
      1.164  0.2163E-01  0.2194E-01  0.2192E-02  0.2225E-02  0.2192E-02  0.2225E-02  0.2192E-02  0.2225E-02  0.0000E+00  0.0000E+00  0.0000E+00  0.0000E+00  0.0000E+00  0.0000E+00  0.0000E+00  0.0000E+00  0.0000E+00  0.0000E+00
      1.252  0.5850E-02  0.5992E-02  0.5946E-03  0.6094E-03  0.5946E-03  0.6094E-03  0.5946E-03  0.6094E-03  0.0000E+00  0.0000E+00  0.0000E+00  0.0000E+00  0.0000E+00  0.0000E+00  0.0000E+00  0.0000E+00  0.0000E+00  0.0000E+00
      1.341  0.1490E-02  0.1508E-02  0.1610E-03  0.1627E-03  0.1610E-03  0.1627E-03  0.1610E-03  0.1627E-03  0.0000E+00  0.0000E+00  0.0000E+00  0.0000E+00  0.0000E+00  0.0000E+00  0.0000E+00  0.0000E+00  0.0000E+00  0.0000E+00