   4   4   1   0
  0.1748982E+02  0.4120486E-09  0.4120486E-09  0.4120486E-09  0.5000000E-15
  1.000000000000000E-004
  CAR 
 unknown system                          
     18.58865598     -4.37752732  301      7.40309847      1.00000000
     -4.378  0.0000E+00  0.0000E+00  0.0000E+00  0.0000E+00
     -4.301  0.0000E+00  0.0000E+00  0.0000E+00  0.0000E+00
     -4.224  0.0000E+00  0.0000E+00  0.0000E+00  0.0000E+00
     -4.148  0.0000E+00  0.0000E+00  0.0000E+00  0.0000E+00
     -4.071  0.0000E+00  0.0000E+00  0.0000E+00  0.0000E+00
     -3.995  0.0000E+00  0.0000E+00  0.0000E+00  0.0000E+00
     -3.918  0.0000E+00  0.0000E+00  0.0000E+00  0.0000E+00
     -3.842  0.0000E+00  0.0000E+00  0.0000E+00  0.0000E+00
     -3.765  0.1062E-05  0.1030E-05  0.8133E-07  0.7886E-07
     -3.689  0.2184E-04  0.2118E-04  0.1753E-05  0.1700E-05
     -3.612  0.9108E-04  0.8832E-04  0.8726E-05  0.8461E-05
     -3.535  0.4348E-03  0.4217E-03  0.4201E-04  0.4075E-04
     -3.459  0.1955E-02  0.1897E-02  0.1917E-03  0.1860E-03
     -3.382  0.8066E-02  0.7851E-02  0.8091E-03  0.7871E-03
     -3.306  0.2630E-01  0.2577E-01  0.2822E-02  0.2760E-02
     -3.229  0.5687E-01  0.5624E-01  0.7176E-02  0.7066E-02
     -3.153  0.8445E-01  0.8392E-01  0.1364E-01  0.1349E-01
     -3.076  0.1152E+00  0.1145E+00  0.2246E-01  0.2226E-01
     -3.000  0.1343E+00  0.1343E+00  0.3274E-01  0.3254E-01
     -2.923  0.1346E+00  0.1344E+00  0.4305E-01  0.4283E-01
     -2.846  0.1675E+00  0.1667E+00  0.5588E-01  0.5559E-01
     -2.770  0.1887E+00  0.1886E+00  0.7033E-01  0.7004E-01
     -2.693  0.1869E+00  0.1868E+00  0.8463E-01  0.8434E-01
     -2.617  0.2022E+00  0.2020E+00  0.1001E+00  0.9982E-01
     -2.540  0.1951E+00  0.1954E+00  0.1151E+00  0.1148E+00
     -2.464  0.2119E+00  0.2109E+00  0.1313E+00  0.1309E+00
     -2.387  0.2614E+00  0.2608E+00  0.1513E+00  0.1509E+00
     -2.311  0.2659E+00  0.2660E+00  0.1717E+00  0.1713E+00
     -2.234  0.2594E+00  0.2597E+00  0.1916E+00  0.1912E+00
     -2.157  0.2228E+00  0.2236E+00  0.2086E+00  0.2083E+00
     -2.081  0.2249E+00  0.2238E+00  0.2258E+00  0.2255E+00
     -2.004  0.3037E+00  0.3022E+00  0.2491E+00  0.2486E+00
     -1.928  0.3325E+00  0.3328E+00  0.2746E+00  0.2741E+00
     -1.851  0.3197E+00  0.3195E+00  0.2991E+00  0.2986E+00
     -1.775  0.3136E+00  0.3145E+00  0.3231E+00  0.3227E+00
     -1.698  0.2578E+00  0.2584E+00  0.3429E+00  0.3425E+00
     -1.622  0.2896E+00  0.2881E+00  0.3651E+00  0.3646E+00
     -1.545  0.3496E+00  0.3490E+00  0.3919E+00  0.3913E+00
     -1.468  0.3456E+00  0.3460E+00  0.4183E+00  0.4178E+00
     -1.392  0.3342E+00  0.3342E+00  0.4439E+00  0.4434E+00
     -1.315  0.3310E+00  0.3309E+00  0.4693E+00  0.4688E+00
     -1.239  0.3808E+00  0.3791E+00  0.4985E+00  0.4978E+00
     -1.162  0.4221E+00  0.4225E+00  0.5308E+00  0.5302E+00
     -1.086  0.3740E+00  0.3747E+00  0.5595E+00  0.5589E+00
     -1.009  0.3657E+00  0.3658E+00  0.5875E+00  0.5869E+00
     -0.933  0.3188E+00  0.3203E+00  0.6119E+00  0.6115E+00
     -0.856  0.2918E+00  0.2908E+00  0.6342E+00  0.6337E+00
     -0.779  0.4012E+00  0.3988E+00  0.6650E+00  0.6643E+00
     -0.703  0.4670E+00  0.4668E+00  0.7008E+00  0.7001E+00
     -0.626  0.4769E+00  0.4763E+00  0.7373E+00  0.7366E+00
     -0.550  0.4828E+00  0.4837E+00  0.7743E+00  0.7736E+00
     -0.473  0.4072E+00  0.4086E+00  0.8055E+00  0.8049E+00
     -0.397  0.3752E+00  0.3753E+00  0.8342E+00  0.8337E+00
     -0.320  0.3797E+00  0.3794E+00  0.8633E+00  0.8628E+00
     -0.244  0.4021E+00  0.4013E+00  0.8941E+00  0.8935E+00
     -0.167  0.4468E+00  0.4464E+00  0.9284E+00  0.9277E+00
     -0.091  0.4139E+00  0.4149E+00  0.9601E+00  0.9595E+00
     -0.014  0.4510E+00  0.4487E+00  0.9947E+00  0.9939E+00
      0.063  0.5423E+00  0.5418E+00  0.1036E+01  0.1035E+01
      0.139  0.5210E+00  0.5216E+00  0.1076E+01  0.1075E+01
      0.216  0.4973E+00  0.4983E+00  0.1114E+01  0.1113E+01
      0.292  0.4105E+00  0.4123E+00  0.1146E+01  0.1145E+01
      0.369  0.4095E+00  0.4076E+00  0.1177E+01  0.1176E+01
      0.445  0.5376E+00  0.5353E+00  0.1218E+01  0.1217E+01
      0.522  0.5637E+00  0.5646E+00  0.1261E+01  0.1261E+01
      0.598  0.5085E+00  0.5096E+00  0.1300E+01  0.1300E+01
      0.675  0.4300E+00  0.4319E+00  0.1333E+01  0.1333E+01
      0.752  0.3982E+00  0.3971E+00  0.1364E+01  0.1363E+01
      0.828  0.5010E+00  0.4991E+00  0.1402E+01  0.1401E+01
      0.905  0.5468E+00  0.5466E+00  0.1444E+01  0.1443E+01
      0.981  0.5485E+00  0.5483E+00  0.1486E+01  0.1485E+01
      1.058  0.5545E+00  0.5548E+00  0.1529E+01  0.1528E+01
      1.134  0.5468E+00  0.5459E+00  0.1570E+01  0.1570E+01
      1.211  0.6701E+00  0.6673E+00  0.1622E+01  0.1621E+01
      1.287  0.6712E+00  0.6743E+00  0.1673E+01  0.1672E+01
      1.364  0.4859E+00  0.4887E+00  0.1710E+01  0.1710E+01
      1.441  0.4262E+00  0.4270E+00  0.1743E+01  0.1742E+01
      1.517  0.3963E+00  0.3969E+00  0.1773E+01  0.1773E+01
      1.594  0.4407E+00  0.4381E+00  0.1807E+01  0.1807E+01
      1.670  0.5953E+00  0.5927E+00  0.1853E+01  0.1852E+01
      1.747  0.6783E+00  0.6773E+00  0.1905E+01  0.1904E+01
      1.823  0.6947E+00  0.6957E+00  0.1958E+01  0.1957E+01
      1.900  0.5845E+00  0.5866E+00  0.2003E+01  0.2002E+01
      1.976  0.5821E+00  0.5806E+00  0.2047E+01  0.2046E+01
      2.053  0.6361E+00  0.6359E+00  0.2096E+01  0.2095E+01
      2.130  0.6128E+00  0.6134E+00  0.2143E+01  0.2142E+01
      2.206  0.6152E+00  0.6148E+00  0.2190E+01  0.2189E+01
      2.283  0.5787E+00  0.5808E+00  0.2235E+01  0.2234E+01
      2.359  0.4919E+00  0.4919E+00  0.2272E+01  0.2272E+01
      2.436  0.5849E+00  0.5825E+00  0.2317E+01  0.2316E+01
      2.512  0.6654E+00  0.6645E+00  0.2368E+01  0.2367E+01
      2.589  0.6930E+00  0.6935E+00  0.2421E+01  0.2420E+01
      2.665  0.6101E+00  0.6127E+00  0.2468E+01  0.2467E+01
      2.742  0.5300E+00  0.5297E+00  0.2509E+01  0.2508E+01
      2.819  0.6193E+00  0.6174E+00  0.2556E+01  0.2555E+01
      2.895  0.6555E+00  0.6559E+00  0.2606E+01  0.2605E+01
      2.972  0.6870E+00  0.6853E+00  0.2659E+01  0.2658E+01
      3.048  0.7293E+00  0.7306E+00  0.2715E+01  0.2714E+01
      3.125  0.6154E+00  0.6166E+00  0.2762E+01  0.2761E+01
      3.201  0.6676E+00  0.6655E+00  0.2813E+01  0.2812E+01
      3.278  0.7276E+00  0.7276E+00  0.2869E+01  0.2868E+01
      3.354  0.7047E+00  0.7050E+00  0.2923E+01  0.2922E+01
      3.431  0.7023E+00  0.7026E+00  0.2977E+01  0.2976E+01
      3.508  0.6442E+00  0.6452E+00  0.3026E+01  0.3025E+01
      3.584  0.6633E+00  0.6620E+00  0.3077E+01  0.3076E+01
      3.661  0.7006E+00  0.7009E+00  0.3130E+01  0.3129E+01
      3.737  0.6473E+00  0.6488E+00  0.3180E+01  0.3179E+01
      3.814  0.5576E+00  0.5594E+00  0.3223E+01  0.3222E+01
      3.890  0.5243E+00  0.5233E+00  0.3263E+01  0.3262E+01
      3.967  0.7024E+00  0.6981E+00  0.3317E+01  0.3316E+01
      4.043  0.8887E+00  0.8876E+00  0.3385E+01  0.3384E+01
      4.120  0.8456E+00  0.8470E+00  0.3450E+01  0.3448E+01
      4.197  0.8256E+00  0.8253E+00  0.3513E+01  0.3512E+01
      4.273  0.7972E+00  0.7981E+00  0.3574E+01  0.3573E+01
      4.350  0.8042E+00  0.8034E+00  0.3635E+01  0.3634E+01
      4.426  0.7925E+00  0.7938E+00  0.3696E+01  0.3695E+01
      4.503  0.6781E+00  0.6808E+00  0.3748E+01  0.3747E+01
      4.579  0.5823E+00  0.5830E+00  0.3793E+01  0.3792E+01
      4.656  0.6320E+00  0.6305E+00  0.3841E+01  0.3840E+01
      4.732  0.7754E+00  0.7725E+00  0.3901E+01  0.3899E+01
      4.809  0.8831E+00  0.8828E+00  0.3968E+01  0.3967E+01
      4.885  0.8250E+00  0.8262E+00  0.4031E+01  0.4030E+01
      4.962  0.8021E+00  0.8014E+00  0.4093E+01  0.4092E+01
      5.039  0.8336E+00  0.8340E+00  0.4157E+01  0.4156E+01
      5.115  0.8129E+00  0.8139E+00  0.4219E+01  0.4218E+01
      5.192  0.7798E+00  0.7793E+00  0.4279E+01  0.4278E+01
      5.268  0.8046E+00  0.8043E+00  0.4340E+01  0.4339E+01
      5.345  0.7749E+00  0.7757E+00  0.4400E+01  0.4399E+01
      5.421  0.6864E+00  0.6892E+00  0.4452E+01  0.4452E+01
      5.498  0.5607E+00  0.5623E+00  0.4495E+01  0.4495E+01
      5.574  0.5901E+00  0.5879E+00  0.4541E+01  0.4540E+01
      5.651  0.7102E+00  0.7080E+00  0.4595E+01  0.4594E+01
      5.728  0.7799E+00  0.7785E+00  0.4655E+01  0.4654E+01
      5.804  0.8528E+00  0.8520E+00  0.4720E+01  0.4719E+01
      5.881  0.8781E+00  0.8774E+00  0.4787E+01  0.4786E+01
      5.957  0.8707E+00  0.8708E+00  0.4854E+01  0.4853E+01
      6.034  0.7843E+00  0.7860E+00  0.4914E+01  0.4913E+01
      6.110  0.6895E+00  0.6912E+00  0.4967E+01  0.4966E+01
      6.187  0.6357E+00  0.6364E+00  0.5016E+01  0.5015E+01
      6.263  0.6875E+00  0.6852E+00  0.5068E+01  0.5067E+01
      6.340  0.8353E+00  0.8332E+00  0.5132E+01  0.5131E+01
      6.417  0.8625E+00  0.8641E+00  0.5198E+01  0.5197E+01
      6.493  0.7153E+00  0.7176E+00  0.5253E+01  0.5252E+01
      6.570  0.6636E+00  0.6627E+00  0.5304E+01  0.5303E+01
      6.646  0.7454E+00  0.7425E+00  0.5361E+01  0.5360E+01
      6.723  0.8035E+00  0.8037E+00  0.5423E+01  0.5422E+01
      6.799  0.7687E+00  0.7689E+00  0.5482E+01  0.5480E+01
      6.876  0.8205E+00  0.8176E+00  0.5544E+01  0.5543E+01
      6.952  0.9673E+00  0.9658E+00  0.5619E+01  0.5617E+01
      7.029  0.9842E+00  0.9850E+00  0.5694E+01  0.5692E+01
      7.106  0.9925E+00  0.9905E+00  0.5770E+01  0.5768E+01
      7.182  0.9745E+00  0.9767E+00  0.5845E+01  0.5843E+01
      7.259  0.7586E+00  0.7624E+00  0.5903E+01  0.5902E+01
      7.335  0.6503E+00  0.6516E+00  0.5953E+01  0.5952E+01
      7.412  0.7145E+00  0.7122E+00  0.6007E+01  0.6006E+01
      7.488  0.8323E+00  0.8305E+00  0.6071E+01  0.6070E+01
      7.565  0.7736E+00  0.7757E+00  0.6130E+01  0.6129E+01
      7.641  0.7150E+00  0.7146E+00  0.6185E+01  0.6184E+01
      7.718  0.8119E+00  0.8112E+00  0.6247E+01  0.6246E+01
      7.795  0.8454E+00  0.8446E+00  0.6312E+01  0.6311E+01
      7.871  0.9242E+00  0.9211E+00  0.6383E+01  0.6381E+01
      7.948  0.1015E+01  0.1014E+01  0.6461E+01  0.6459E+01
      8.024  0.9602E+00  0.9621E+00  0.6534E+01  0.6533E+01
      8.101  0.9479E+00  0.9472E+00  0.6607E+01  0.6605E+01
      8.177  0.9238E+00  0.9261E+00  0.6678E+01  0.6676E+01
      8.254  0.7937E+00  0.7950E+00  0.6738E+01  0.6737E+01
      8.330  0.7464E+00  0.7447E+00  0.6796E+01  0.6794E+01
      8.407  0.8505E+00  0.8475E+00  0.6861E+01  0.6859E+01
      8.484  0.9431E+00  0.9451E+00  0.6933E+01  0.6932E+01
      8.560  0.8390E+00  0.8419E+00  0.6997E+01  0.6996E+01
      8.637  0.8641E+00  0.8599E+00  0.7064E+01  0.7062E+01
      8.713  0.1029E+01  0.1027E+01  0.7142E+01  0.7141E+01
      8.790  0.9664E+00  0.9682E+00  0.7216E+01  0.7215E+01
      8.866  0.9863E+00  0.9844E+00  0.7292E+01  0.7290E+01
      8.943  0.9872E+00  0.9887E+00  0.7368E+01  0.7366E+01
      9.019  0.9163E+00  0.9158E+00  0.7438E+01  0.7436E+01
      9.096  0.8743E+00  0.8746E+00  0.7505E+01  0.7503E+01
      9.173  0.8143E+00  0.8144E+00  0.7567E+01  0.7566E+01
      9.249  0.8470E+00  0.8472E+00  0.7632E+01  0.7631E+01
      9.326  0.8448E+00  0.8473E+00  0.7697E+01  0.7695E+01
      9.402  0.8728E+00  0.8708E+00  0.7764E+01  0.7762E+01
      9.479  0.9177E+00  0.9179E+00  0.7834E+01  0.7832E+01
      9.555  0.8055E+00  0.8081E+00  0.7896E+01  0.7894E+01
      9.632  0.7910E+00  0.7889E+00  0.7956E+01  0.7955E+01
      9.708  0.9517E+00  0.9478E+00  0.8029E+01  0.8027E+01
      9.785  0.1078E+01  0.1074E+01  0.8112E+01  0.8110E+01
      9.862  0.1235E+01  0.1230E+01  0.8206E+01  0.8204E+01
      9.938  0.1235E+01  0.1237E+01  0.8301E+01  0.8299E+01
     10.015  0.1140E+01  0.1142E+01  0.8388E+01  0.8386E+01
     10.091  0.1045E+01  0.1049E+01  0.8468E+01  0.8467E+01
     10.168  0.9597E+00  0.9615E+00  0.8542E+01  0.8540E+01
     10.244  0.8276E+00  0.8315E+00  0.8605E+01  0.8604E+01
     10.321  0.6853E+00  0.6869E+00  0.8658E+01  0.8657E+01
     10.397  0.7702E+00  0.7664E+00  0.8717E+01  0.8715E+01
     10.474  0.9470E+00  0.9432E+00  0.8789E+01  0.8788E+01
     10.550  0.9796E+00  0.9790E+00  0.8865E+01  0.8863E+01
     10.627  0.9872E+00  0.9860E+00  0.8940E+01  0.8938E+01
     10.704  0.1050E+01  0.1047E+01  0.9021E+01  0.9018E+01
     10.780  0.1180E+01  0.1179E+01  0.9111E+01  0.9109E+01
     10.857  0.1207E+01  0.1211E+01  0.9203E+01  0.9201E+01
     10.933  0.9903E+00  0.9949E+00  0.9279E+01  0.9278E+01
     11.010  0.8769E+00  0.8768E+00  0.9346E+01  0.9345E+01
     11.086  0.9069E+00  0.9050E+00  0.9416E+01  0.9414E+01
     11.163  0.9712E+00  0.9714E+00  0.9490E+01  0.9489E+01
     11.239  0.8779E+00  0.8794E+00  0.9558E+01  0.9556E+01
     11.316  0.8991E+00  0.8965E+00  0.9627E+01  0.9625E+01
     11.393  0.9633E+00  0.9622E+00  0.9700E+01  0.9698E+01
     11.469  0.1173E+01  0.1165E+01  0.9790E+01  0.9788E+01
     11.546  0.1422E+01  0.1422E+01  0.9899E+01  0.9897E+01
     11.622  0.1308E+01  0.1315E+01  0.9999E+01  0.9997E+01
     11.699  0.1104E+01  0.1108E+01  0.1008E+02  0.1008E+02
     11.775  0.9597E+00  0.9595E+00  0.1016E+02  0.1016E+02
     11.852  0.9658E+00  0.9614E+00  0.1023E+02  0.1023E+02
     11.928  0.1115E+01  0.1113E+01  0.1032E+02  0.1031E+02
     12.005  0.1114E+01  0.1116E+01  0.1040E+02  0.1040E+02
     12.082  0.9853E+00  0.9892E+00  0.1048E+02  0.1048E+02
     12.158  0.7920E+00  0.7958E+00  0.1054E+02  0.1054E+02
     12.235  0.8085E+00  0.8021E+00  0.1060E+02  0.1060E+02
     12.311  0.1061E+01  0.1054E+01  0.1068E+02  0.1068E+02
     12.388  0.1018E+01  0.1019E+01  0.1076E+02  0.1076E+02
     12.464  0.8183E+00  0.8220E+00  0.1082E+02  0.1082E+02
     12.541  0.7006E+00  0.7085E+00  0.1088E+02  0.1087E+02
     12.617  0.7396E+00  0.7459E+00  0.1093E+02  0.1093E+02
     12.694  0.9028E+00  0.9081E+00  0.1100E+02  0.1100E+02
     12.771  0.9556E+00  0.9526E+00  0.1108E+02  0.1107E+02
     12.847  0.8444E+00  0.8357E+00  0.1114E+02  0.1114E+02
     12.924  0.7515E+00  0.7474E+00  0.1120E+02  0.1120E+02
     13.000  0.7303E+00  0.7324E+00  0.1125E+02  0.1125E+02
     13.077  0.5893E+00  0.5951E+00  0.1130E+02  0.1130E+02
     13.153  0.3621E+00  0.3659E+00  0.1133E+02  0.1133E+02
     13.230  0.3295E+00  0.3307E+00  0.1135E+02  0.1135E+02
     13.306  0.3378E+00  0.3394E+00  0.1138E+02  0.1138E+02
     13.383  0.3140E+00  0.3143E+00  0.1140E+02  0.1140E+02
     13.460  0.3628E+00  0.3613E+00  0.1143E+02  0.1143E+02
     13.536  0.4288E+00  0.4287E+00  0.1146E+02  0.1146E+02
     13.613  0.3702E+00  0.3731E+00  0.1149E+02  0.1149E+02
     13.689  0.2850E+00  0.2901E+00  0.1151E+02  0.1151E+02
     13.766  0.2491E+00  0.2603E+00  0.1153E+02  0.1153E+02
     13.842  0.2922E+00  0.3009E+00  0.1155E+02  0.1156E+02
     13.919  0.3728E+00  0.3609E+00  0.1158E+02  0.1158E+02
     13.995  0.3444E+00  0.3367E+00  0.1161E+02  0.1161E+02
     14.072  0.3083E+00  0.3049E+00  0.1163E+02  0.1163E+02
     14.149  0.3314E+00  0.3292E+00  0.1166E+02  0.1166E+02
     14.225  0.2693E+00  0.2696E+00  0.1168E+02  0.1168E+02
     14.302  0.1888E+00  0.1870E+00  0.1169E+02  0.1169E+02
     14.378  0.1686E+00  0.1632E+00  0.1171E+02  0.1170E+02
     14.455  0.1868E+00  0.1869E+00  0.1172E+02  0.1172E+02
     14.531  0.1940E+00  0.1991E+00  0.1174E+02  0.1173E+02
     14.608  0.1932E+00  0.1938E+00  0.1175E+02  0.1175E+02
     14.684  0.2039E+00  0.2004E+00  0.1177E+02  0.1176E+02
     14.761  0.1823E+00  0.1775E+00  0.1178E+02  0.1178E+02
     14.838  0.1476E+00  0.1527E+00  0.1179E+02  0.1179E+02
     14.914  0.1308E+00  0.1354E+00  0.1180E+02  0.1180E+02
     14.991  0.1985E+00  0.1978E+00  0.1182E+02  0.1182E+02
     15.067  0.2591E+00  0.2589E+00  0.1184E+02  0.1184E+02
     15.144  0.2115E+00  0.2144E+00  0.1185E+02  0.1185E+02
     15.220  0.9452E-01  0.9737E-01  0.1186E+02  0.1186E+02
     15.297  0.3257E-01  0.3323E-01  0.1186E+02  0.1186E+02
     15.373  0.3591E-01  0.3458E-01  0.1186E+02  0.1186E+02
     15.450  0.1049E+00  0.1002E+00  0.1187E+02  0.1187E+02
     15.526  0.2144E+00  0.2083E+00  0.1189E+02  0.1189E+02
     15.603  0.2162E+00  0.2185E+00  0.1191E+02  0.1190E+02
     15.680  0.1039E+00  0.1107E+00  0.1191E+02  0.1191E+02
     15.756  0.3432E-01  0.3701E-01  0.1192E+02  0.1192E+02
     15.833  0.2966E-01  0.2954E-01  0.1192E+02  0.1192E+02
     15.909  0.8177E-01  0.7965E-01  0.1192E+02  0.1192E+02
     15.986  0.1576E+00  0.1565E+00  0.1194E+02  0.1194E+02
     16.062  0.1284E+00  0.1305E+00  0.1195E+02  0.1195E+02
     16.139  0.5674E-01  0.5827E-01  0.1195E+02  0.1195E+02
     16.215  0.2011E-01  0.2065E-01  0.1195E+02  0.1195E+02
     16.292  0.1504E-01  0.1477E-01  0.1195E+02  0.1195E+02
     16.369  0.4092E-01  0.3991E-01  0.1196E+02  0.1196E+02
     16.445  0.9433E-01  0.9307E-01  0.1196E+02  0.1196E+02
     16.522  0.8949E-01  0.9090E-01  0.1197E+02  0.1197E+02
     16.598  0.3573E-01  0.3701E-01  0.1197E+02  0.1197E+02
     16.675  0.9339E-02  0.9683E-02  0.1197E+02  0.1197E+02
     16.751  0.2817E-02  0.2653E-02  0.1197E+02  0.1197E+02
     16.828  0.3824E-02  0.2706E-02  0.1197E+02  0.1197E+02
     16.904  0.1371E-01  0.9480E-02  0.1198E+02  0.1198E+02
     16.981  0.3917E-01  0.3111E-01  0.1198E+02  0.1198E+02
     17.058  0.5067E-01  0.5210E-01  0.1198E+02  0.1198E+02
     17.134  0.2569E-01  0.3361E-01  0.1198E+02  0.1198E+02
     17.211  0.7918E-02  0.1144E-01  0.1199E+02  0.1199E+02
     17.287  0.4893E-02  0.6499E-02  0.1199E+02  0.1199E+02
     17.364  0.1347E-01  0.1659E-01  0.1199E+02  0.1199E+02
     17.440  0.3815E-01  0.4495E-01  0.1199E+02  0.1199E+02
     17.517  0.5972E-01  0.6150E-01  0.1199E+02  0.1200E+02
     17.593  0.4802E-01  0.4105E-01  0.1200E+02  0.1200E+02
     17.670  0.2013E-01  0.1607E-01  0.1200E+02  0.1200E+02
     17.747  0.5410E-02  0.4287E-02  0.1200E+02  0.1200E+02
     17.823  0.1235E-02  0.9782E-03  0.1200E+02  0.1200E+02
     17.900  0.2257E-03  0.1417E-03  0.1200E+02  0.1200E+02
     17.976  0.0000E+00  0.0000E+00  0.1200E+02  0.1200E+02
     18.053  0.0000E+00  0.0000E+00  0.1200E+02  0.1200E+02
     18.129  0.0000E+00  0.0000E+00  0.1200E+02  0.1200E+02
     18.206  0.0000E+00  0.0000E+00  0.1200E+02  0.1200E+02
     18.282  0.0000E+00  0.0000E+00  0.1200E+02  0.1200E+02
     18.359  0.0000E+00  0.0000E+00  0.1200E+02  0.1200E+02
     18.436  0.0000E+00  0.0000E+00  0.1200E+02  0.1200E+02
     18.512  0.0000E+00  0.0000E+00  0.1200E+02  0.1200E+02
     18.589  0.0000E+00  0.0000E+00  0.1200E+02  0.1200E+02
     18.58865598     -4.37752732  301      7.40309847      1.00000000
     -4.378  0.0000E+00  0.0000E+00  0.0000E+00  0.0000E+00  0.0000E+00  0.0000E+00  0.0000E+00  0.0000E+00  0.0000E+00  0.0000E+00  0.0000E+00  0.0000E+00  0.0000E+00  0.0000E+00  0.0000E+00  0.0000E+00  0.0000E+00  0.0000E+00
     -4.301  0.0000E+00  0.0000E+00  0.0000E+00  0.0000E+00  0.0000E+00  0.0000E+00  0.0000E+00  0.0000E+00  0.0000E+00  0.0000E+00  0.0000E+00  0.0000E+00  0.0000E+00  0.0000E+00  0.0000E+00  0.0000E+00  0.0000E+00  0.0000E+00
     -4.224  0.0000E+00  0.0000E+00  0.0000E+00  0.0000E+00  0.0000E+00  0.0000E+00  0.0000E+00  0.0000E+00  0.0000E+00  0.0000E+00  0.0000E+00  0.0000E+00  0.0000E+00  0.0000E+00  0.0000E+00  0.0000E+00  0.0000E+00  0.0000E+00
     -4.148  0.0000E+00  0.0000E+00  0.0000E+00  0.0000E+00  0.0000E+00  0.0000E+00  0.0000E+00  0.0000E+00  0.0000E+00  0.0000E+00  0.0000E+00  0.0000E+00  0.0000E+00  0.0000E+00  0.0000E+00  0.0000E+00  0.0000E+00  0.0000E+00
     -4.071  0.0000E+00  0.0000E+00  0.0000E+00  0.0000E+00  0.0000E+00  0.0000E+00  0.0000E+00  0.0000E+00  0.0000E+00  0.0000E+00  0.0000E+00  0.0000E+00  0.0000E+00  0.0000E+00  0.0000E+00  0.0000E+00  0.0000E+00  0.0000E+00
     -3.995  0.0000E+00  0.0000E+00  0.0000E+00  0.0000E+00  0.0000E+00  0.0000E+00  0.0000E+00  0.0000E+00  0.0000E+00  0.0000E+00  0.0000E+00  0.0000E+00  0.0000E+00  0.0000E+00  0.0000E+00  0.0000E+00  0.0000E+00  0.0000E+00
     -3.918  0.0000E+00  0.0000E+00  0.0000E+00  0.0000E+00  0.0000E+00  0.0000E+00  0.0000E+00  0.0000E+00  0.0000E+00  0.0000E+00  0.0000E+00  0.0000E+00  0.0000E+00  0.0000E+00  0.0000E+00  0.0000E+00  0.0000E+00  0.0000E+00
     -3.842  0.0000E+00  0.0000E+00  0.0000E+00  0.0000E+00  0.0000E+00  0.0000E+00  0.0000E+00  0.0000E+00  0.0000E+00  0.0000E+00  0.0000E+00  0.0000E+00  0.0000E+00  0.0000E+00  0.0000E+00  0.0000E+00  0.0000E+00  0.0000E+00
     -3.765  0.6932E-07  0.6715E-07  0.2999E-23  0.9831E-23  0.2999E-23  0.9831E-23  0.2999E-23  0.9831E-23  0.0000E+00  0.0000E+00  0.0000E+00  0.0000E+00  0.0000E+00  0.0000E+00  0.0000E+00  0.0000E+00  0.0000E+00  0.0000E+00
     -3.689  0.1419E-05  0.1374E-05  0.2129E-08  0.2063E-08  0.2129E-08  0.2063E-08  0.2129E-08  0.2063E-08  0.0000E+00  0.0000E+00  0.0000E+00  0.0000E+00  0.0000E+00  0.0000E+00  0.0000E+00  0.0000E+00  0.0000E+00  0.0000E+00
     -3.612  0.5914E-05  0.5729E-05  0.9765E-08  0.9465E-08  0.9765E-08  0.9465E-08  0.9765E-08  0.9465E-08  0.0000E+00  0.0000E+00  0.0000E+00  0.0000E+00  0.0000E+00  0.0000E+00  0.0000E+00  0.0000E+00  0.0000E+00  0.0000E+00
     -3.535  0.2822E-04  0.2734E-04  0.5239E-07  0.5078E-07  0.5239E-07  0.5078E-07  0.5239E-07  0.5078E-07  0.0000E+00  0.0000E+00  0.0000E+00  0.0000E+00  0.0000E+00  0.0000E+00  0.0000E+00  0.0000E+00  0.0000E+00  0.0000E+00
     -3.459  0.1268E-03  0.1230E-03  0.2418E-06  0.2345E-06  0.2418E-06  0.2345E-06  0.2418E-06  0.2345E-06  0.0000E+00  0.0000E+00  0.0000E+00  0.0000E+00  0.0000E+00  0.0000E+00  0.0000E+00  0.0000E+00  0.0000E+00  0.0000E+00
     -3.382  0.5232E-03  0.5088E-03  0.1054E-05  0.1023E-05  0.1054E-05  0.1023E-05  0.1054E-05  0.1023E-05  0.0000E+00  0.0000E+00  0.0000E+00  0.0000E+00  0.0000E+00  0.0000E+00  0.0000E+00  0.0000E+00  0.0000E+00  0.0000E+00
     -3.306  0.1704E-02  0.1669E-02  0.4033E-05  0.3934E-05  0.4033E-05  0.3934E-05  0.4033E-05  0.3934E-05  0.0000E+00  0.0000E+00  0.0000E+00  0.0000E+00  0.0000E+00  0.0000E+00  0.0000E+00  0.0000E+00  0.0000E+00  0.0000E+00
     -3.229  0.3677E-02  0.3633E-02  0.1145E-04  0.1125E-04  0.1145E-04  0.1125E-04  0.1145E-04  0.1125E-04  0.0000E+00  0.0000E+00  0.0000E+00  0.0000E+00  0.0000E+00  0.0000E+00  0.0000E+00  0.0000E+00  0.0000E+00  0.0000E+00
     -3.153  0.5439E-02  0.5400E-02  0.2443E-04  0.2408E-04  0.2443E-04  0.2408E-04  0.2443E-04  0.2408E-04  0.0000E+00  0.0000E+00  0.0000E+00  0.0000E+00  0.0000E+00  0.0000E+00  0.0000E+00  0.0000E+00  0.0000E+00  0.0000E+00
     -3.076  0.7381E-02  0.7332E-02  0.4579E-04  0.4529E-04  0.4579E-04  0.4529E-04  0.4579E-04  0.4529E-04  0.0000E+00  0.0000E+00  0.0000E+00  0.0000E+00  0.0000E+00  0.0000E+00  0.0000E+00  0.0000E+00  0.0000E+00  0.0000E+00
     -3.000  0.8575E-02  0.8566E-02  0.6546E-04  0.6515E-04  0.6546E-04  0.6515E-04  0.6546E-04  0.6515E-04  0.0000E+00  0.0000E+00  0.0000E+00  0.0000E+00  0.0000E+00  0.0000E+00  0.0000E+00  0.0000E+00  0.0000E+00  0.0000E+00
     -2.923  0.8542E-02  0.8517E-02  0.8350E-04  0.8287E-04  0.8350E-04  0.8287E-04  0.8350E-04  0.8287E-04  0.0000E+00  0.0000E+00  0.0000E+00  0.0000E+00  0.0000E+00  0.0000E+00  0.0000E+00  0.0000E+00  0.0000E+00  0.0000E+00
     -2.846  0.1056E-01  0.1050E-01  0.1261E-03  0.1251E-03  0.1261E-03  0.1251E-03  0.1261E-03  0.1251E-03  0.0000E+00  0.0000E+00  0.0000E+00  0.0000E+00  0.0000E+00  0.0000E+00  0.0000E+00  0.0000E+00  0.0000E+00  0.0000E+00
     -2.770  0.1184E-01  0.1183E-01  0.1603E-03  0.1598E-03  0.1603E-03  0.1598E-03  0.1603E-03  0.1598E-03  0.0000E+00  0.0000E+00  0.0000E+00  0.0000E+00  0.0000E+00  0.0000E+00  0.0000E+00  0.0000E+00  0.0000E+00  0.0000E+00
     -2.693  0.1166E-01  0.1165E-01  0.1812E-03  0.1805E-03  0.1812E-03  0.1805E-03  0.1812E-03  0.1805E-03  0.0000E+00  0.0000E+00  0.0000E+00  0.0000E+00  0.0000E+00  0.0000E+00  0.0000E+00  0.0000E+00  0.0000E+00  0.0000E+00
     -2.617  0.1255E-01  0.1252E-01  0.2208E-03  0.2200E-03  0.2208E-03  0.2200E-03  0.2208E-03  0.2200E-03  0.0000E+00  0.0000E+00  0.0000E+00  0.0000E+00  0.0000E+00  0.0000E+00  0.0000E+00  0.0000E+00  0.0000E+00  0.0000E+00
     -2.540  0.1204E-01  0.1205E-01  0.2345E-03  0.2343E-03  0.2345E-03  0.2343E-03  0.2345E-03  0.2343E-03  0.0000E+00  0.0000E+00  0.0000E+00  0.0000E+00  0.0000E+00  0.0000E+00  0.0000E+00  0.0000E+00  0.0000E+00  0.0000E+00
     -2.464  0.1299E-01  0.1291E-01  0.2876E-03  0.2855E-03  0.2876E-03  0.2855E-03  0.2876E-03  0.2855E-03  0.0000E+00  0.0000E+00  0.0000E+00  0.0000E+00  0.0000E+00  0.0000E+00  0.0000E+00  0.0000E+00  0.0000E+00  0.0000E+00
     -2.387  0.1594E-01  0.1589E-01  0.3816E-03  0.3802E-03  0.3816E-03  0.3802E-03  0.3816E-03  0.3802E-03  0.0000E+00  0.0000E+00  0.0000E+00  0.0000E+00  0.0000E+00  0.0000E+00  0.0000E+00  0.0000E+00  0.0000E+00  0.0000E+00
     -2.311  0.1613E-01  0.1612E-01  0.4151E-03  0.4145E-03  0.4151E-03  0.4145E-03  0.4151E-03  0.4145E-03  0.0000E+00  0.0000E+00  0.0000E+00  0.0000E+00  0.0000E+00  0.0000E+00  0.0000E+00  0.0000E+00  0.0000E+00  0.0000E+00
     -2.234  0.1565E-01  0.1566E-01  0.4329E-03  0.4328E-03  0.4329E-03  0.4328E-03  0.4329E-03  0.4328E-03  0.0000E+00  0.0000E+00  0.0000E+00  0.0000E+00  0.0000E+00  0.0000E+00  0.0000E+00  0.0000E+00  0.0000E+00  0.0000E+00
     -2.157  0.1337E-01  0.1341E-01  0.3965E-03  0.3971E-03  0.3965E-03  0.3971E-03  0.3965E-03  0.3971E-03  0.0000E+00  0.0000E+00  0.0000E+00  0.0000E+00  0.0000E+00  0.0000E+00  0.0000E+00  0.0000E+00  0.0000E+00  0.0000E+00
     -2.081  0.1338E-01  0.1331E-01  0.4379E-03  0.4350E-03  0.4379E-03  0.4350E-03  0.4379E-03  0.4350E-03  0.0000E+00  0.0000E+00  0.0000E+00  0.0000E+00  0.0000E+00  0.0000E+00  0.0000E+00  0.0000E+00  0.0000E+00  0.0000E+00
     -2.004  0.1797E-01  0.1786E-01  0.6280E-03  0.6241E-03  0.6280E-03  0.6241E-03  0.6280E-03  0.6241E-03  0.0000E+00  0.0000E+00  0.0000E+00  0.0000E+00  0.0000E+00  0.0000E+00  0.0000E+00  0.0000E+00  0.0000E+00  0.0000E+00
     -1.928  0.1958E-01  0.1958E-01  0.7153E-03  0.7151E-03  0.7153E-03  0.7151E-03  0.7153E-03  0.7151E-03  0.0000E+00  0.0000E+00  0.0000E+00  0.0000E+00  0.0000E+00  0.0000E+00  0.0000E+00  0.0000E+00  0.0000E+00  0.0000E+00
     -1.851  0.1872E-01  0.1869E-01  0.7249E-03  0.7235E-03  0.7249E-03  0.7235E-03  0.7249E-03  0.7235E-03  0.0000E+00  0.0000E+00  0.0000E+00  0.0000E+00  0.0000E+00  0.0000E+00  0.0000E+00  0.0000E+00  0.0000E+00  0.0000E+00
     -1.775  0.1827E-01  0.1830E-01  0.7420E-03  0.7432E-03  0.7420E-03  0.7432E-03  0.7420E-03  0.7432E-03  0.0000E+00  0.0000E+00  0.0000E+00  0.0000E+00  0.0000E+00  0.0000E+00  0.0000E+00  0.0000E+00  0.0000E+00  0.0000E+00
     -1.698  0.1492E-01  0.1494E-01  0.6410E-03  0.6414E-03  0.6410E-03  0.6414E-03  0.6410E-03  0.6414E-03  0.0000E+00  0.0000E+00  0.0000E+00  0.0000E+00  0.0000E+00  0.0000E+00  0.0000E+00  0.0000E+00  0.0000E+00  0.0000E+00
     -1.622  0.1663E-01  0.1653E-01  0.7645E-03  0.7595E-03  0.7645E-03  0.7595E-03  0.7645E-03  0.7595E-03  0.0000E+00  0.0000E+00  0.0000E+00  0.0000E+00  0.0000E+00  0.0000E+00  0.0000E+00  0.0000E+00  0.0000E+00  0.0000E+00
     -1.545  0.1997E-01  0.1992E-01  0.9568E-03  0.9543E-03  0.9568E-03  0.9543E-03  0.9568E-03  0.9543E-03  0.0000E+00  0.0000E+00  0.0000E+00  0.0000E+00  0.0000E+00  0.0000E+00  0.0000E+00  0.0000E+00  0.0000E+00  0.0000E+00
     -1.468  0.1963E-01  0.1964E-01  0.9807E-03  0.9807E-03  0.9807E-03  0.9807E-03  0.9807E-03  0.9807E-03  0.0000E+00  0.0000E+00  0.0000E+00  0.0000E+00  0.0000E+00  0.0000E+00  0.0000E+00  0.0000E+00  0.0000E+00  0.0000E+00
     -1.392  0.1886E-01  0.1885E-01  0.9897E-03  0.9886E-03  0.9897E-03  0.9886E-03  0.9897E-03  0.9886E-03  0.0000E+00  0.0000E+00  0.0000E+00  0.0000E+00  0.0000E+00  0.0000E+00  0.0000E+00  0.0000E+00  0.0000E+00  0.0000E+00
     -1.315  0.1856E-01  0.1853E-01  0.1020E-02  0.1019E-02  0.1020E-02  0.1019E-02  0.1020E-02  0.1019E-02  0.0000E+00  0.0000E+00  0.0000E+00  0.0000E+00  0.0000E+00  0.0000E+00  0.0000E+00  0.0000E+00  0.0000E+00  0.0000E+00
     -1.239  0.2120E-01  0.2109E-01  0.1223E-02  0.1216E-02  0.1223E-02  0.1216E-02  0.1223E-02  0.1216E-02  0.0000E+00  0.0000E+00  0.0000E+00  0.0000E+00  0.0000E+00  0.0000E+00  0.0000E+00  0.0000E+00  0.0000E+00  0.0000E+00
     -1.162  0.2340E-01  0.2340E-01  0.1389E-02  0.1389E-02  0.1389E-02  0.1389E-02  0.1389E-02  0.1389E-02  0.0000E+00  0.0000E+00  0.0000E+00  0.0000E+00  0.0000E+00  0.0000E+00  0.0000E+00  0.0000E+00  0.0000E+00  0.0000E+00
     -1.086  0.2061E-01  0.2063E-01  0.1268E-02  0.1269E-02  0.1268E-02  0.1269E-02  0.1268E-02  0.1269E-02  0.0000E+00  0.0000E+00  0.0000E+00  0.0000E+00  0.0000E+00  0.0000E+00  0.0000E+00  0.0000E+00  0.0000E+00  0.0000E+00
     -1.009  0.2002E-01  0.2001E-01  0.1283E-02  0.1282E-02  0.1283E-02  0.1282E-02  0.1283E-02  0.1282E-02  0.0000E+00  0.0000E+00  0.0000E+00  0.0000E+00  0.0000E+00  0.0000E+00  0.0000E+00  0.0000E+00  0.0000E+00  0.0000E+00
     -0.933  0.1736E-01  0.1742E-01  0.1150E-02  0.1154E-02  0.1150E-02  0.1154E-02  0.1150E-02  0.1154E-02  0.0000E+00  0.0000E+00  0.0000E+00  0.0000E+00  0.0000E+00  0.0000E+00  0.0000E+00  0.0000E+00  0.0000E+00  0.0000E+00
     -0.856  0.1574E-01  0.1568E-01  0.1099E-02  0.1094E-02  0.1099E-02  0.1094E-02  0.1099E-02  0.1094E-02  0.0000E+00  0.0000E+00  0.0000E+00  0.0000E+00  0.0000E+00  0.0000E+00  0.0000E+00  0.0000E+00  0.0000E+00  0.0000E+00
     -0.779  0.2149E-01  0.2134E-01  0.1562E-02  0.1551E-02  0.1562E-02  0.1551E-02  0.1562E-02  0.1551E-02  0.0000E+00  0.0000E+00  0.0000E+00  0.0000E+00  0.0000E+00  0.0000E+00  0.0000E+00  0.0000E+00  0.0000E+00  0.0000E+00
     -0.703  0.2489E-01  0.2485E-01  0.1858E-02  0.1855E-02  0.1858E-02  0.1855E-02  0.1858E-02  0.1855E-02  0.0000E+00  0.0000E+00  0.0000E+00  0.0000E+00  0.0000E+00  0.0000E+00  0.0000E+00  0.0000E+00  0.0000E+00  0.0000E+00
     -0.626  0.2525E-01  0.2519E-01  0.1950E-02  0.1946E-02  0.1950E-02  0.1946E-02  0.1950E-02  0.1946E-02  0.0000E+00  0.0000E+00  0.0000E+00  0.0000E+00  0.0000E+00  0.0000E+00  0.0000E+00  0.0000E+00  0.0000E+00  0.0000E+00
     -0.550  0.2542E-01  0.2544E-01  0.2018E-02  0.2020E-02  0.2018E-02  0.2020E-02  0.2018E-02  0.2020E-02  0.0000E+00  0.0000E+00  0.0000E+00  0.0000E+00  0.0000E+00  0.0000E+00  0.0000E+00  0.0000E+00  0.0000E+00  0.0000E+00