   4   4   1   0
  0.1413044E+02  0.3837707E-09  0.3837707E-09  0.3837707E-09  0.5000000E-15
  1.000000000000000E-004
  CAR 
 unknown system                          
     21.55343503     -3.46173206  301      9.55562616      1.00000000
     -3.462  0.0000E+00  0.0000E+00  0.0000E+00  0.0000E+00
     -3.378  0.0000E+00  0.0000E+00  0.0000E+00  0.0000E+00
     -3.295  0.0000E+00  0.0000E+00  0.0000E+00  0.0000E+00
     -3.212  0.0000E+00  0.0000E+00  0.0000E+00  0.0000E+00
     -3.128  0.0000E+00  0.0000E+00  0.0000E+00  0.0000E+00
     -3.045  0.0000E+00  0.0000E+00  0.0000E+00  0.0000E+00
     -2.961  0.0000E+00  0.0000E+00  0.0000E+00  0.0000E+00
     -2.878  0.0000E+00  0.0000E+00  0.0000E+00  0.0000E+00
     -2.795  0.3675E-04  0.3531E-04  0.3065E-05  0.2944E-05
     -2.711  0.1580E-03  0.1518E-03  0.1624E-04  0.1560E-04
     -2.628  0.8353E-03  0.8026E-03  0.8589E-04  0.8253E-04
     -2.545  0.4375E-02  0.4206E-02  0.4507E-03  0.4332E-03
     -2.461  0.2182E-01  0.2102E-01  0.2270E-02  0.2186E-02
     -2.378  0.8696E-01  0.8460E-01  0.9521E-02  0.9241E-02
     -2.294  0.1733E+00  0.1725E+00  0.2397E-01  0.2363E-01
     -2.211  0.1155E+00  0.1180E+00  0.3360E-01  0.3347E-01
     -2.128  0.3381E-01  0.3497E-01  0.3642E-01  0.3639E-01
     -2.044  0.1122E-01  0.1132E-01  0.3735E-01  0.3733E-01
     -1.961  0.2405E-01  0.2323E-01  0.3936E-01  0.3927E-01
     -1.877  0.1086E+00  0.1048E+00  0.4844E-01  0.4803E-01
     -1.794  0.3660E+00  0.3584E+00  0.7896E-01  0.7792E-01
     -1.711  0.5133E+00  0.5160E+00  0.1218E+00  0.1210E+00
     -1.627  0.2428E+00  0.2497E+00  0.1420E+00  0.1418E+00
     -1.544  0.6087E-01  0.6306E-01  0.1471E+00  0.1470E+00
     -1.461  0.1987E-01  0.2003E-01  0.1487E+00  0.1487E+00
     -1.377  0.4329E-01  0.4186E-01  0.1524E+00  0.1522E+00
     -1.294  0.1810E+00  0.1754E+00  0.1675E+00  0.1669E+00
     -1.210  0.4711E+00  0.4654E+00  0.2068E+00  0.2057E+00
     -1.127  0.4371E+00  0.4436E+00  0.2432E+00  0.2427E+00
     -1.044  0.1522E+00  0.1572E+00  0.2559E+00  0.2558E+00
     -0.960  0.3715E-01  0.3829E-01  0.2590E+00  0.2590E+00
     -0.877  0.2709E-01  0.2656E-01  0.2613E+00  0.2612E+00
     -0.793  0.1018E+00  0.9817E-01  0.2699E+00  0.2695E+00
     -0.710  0.3885E+00  0.3787E+00  0.3023E+00  0.3011E+00
     -0.627  0.7001E+00  0.6991E+00  0.3606E+00  0.3594E+00
     -0.543  0.4191E+00  0.4291E+00  0.3956E+00  0.3951E+00
     -0.460  0.1158E+00  0.1199E+00  0.4052E+00  0.4051E+00
     -0.377  0.3527E-01  0.3573E-01  0.4082E+00  0.4081E+00
     -0.293  0.6656E-01  0.6442E-01  0.4137E+00  0.4135E+00
     -0.210  0.2859E+00  0.2767E+00  0.4377E+00  0.4367E+00
     -0.126  0.8502E+00  0.8364E+00  0.5086E+00  0.5064E+00
     -0.043  0.9611E+00  0.9711E+00  0.5887E+00  0.5874E+00
      0.040  0.3825E+00  0.3943E+00  0.6206E+00  0.6202E+00
      0.124  0.9012E-01  0.9336E-01  0.6281E+00  0.6280E+00
      0.207  0.3007E-01  0.3027E-01  0.6306E+00  0.6306E+00
      0.291  0.6416E-01  0.6187E-01  0.6363E+00  0.6361E+00
      0.374  0.2571E+00  0.2502E+00  0.6577E+00  0.6569E+00
      0.457  0.5186E+00  0.5164E+00  0.7010E+00  0.7000E+00
      0.541  0.3505E+00  0.3580E+00  0.7302E+00  0.7298E+00
      0.624  0.1029E+00  0.1064E+00  0.7388E+00  0.7387E+00
      0.707  0.3206E-01  0.3246E-01  0.7415E+00  0.7414E+00
      0.791  0.6143E-01  0.5947E-01  0.7466E+00  0.7464E+00
      0.874  0.2670E+00  0.2583E+00  0.7689E+00  0.7680E+00
      0.958  0.8213E+00  0.8073E+00  0.8374E+00  0.8353E+00
      1.041  0.9815E+00  0.9902E+00  0.9193E+00  0.9179E+00
      1.124  0.4082E+00  0.4202E+00  0.9533E+00  0.9529E+00
      1.208  0.1023E+00  0.1055E+00  0.9618E+00  0.9617E+00
      1.291  0.5817E-01  0.5743E-01  0.9667E+00  0.9665E+00
      1.375  0.1969E+00  0.1900E+00  0.9835E+00  0.9827E+00
      1.458  0.7843E+00  0.7639E+00  0.1049E+01  0.1046E+01
      1.541  0.1560E+01  0.1554E+01  0.1179E+01  0.1176E+01
      1.625  0.1036E+01  0.1058E+01  0.1265E+01  0.1264E+01
      1.708  0.2972E+00  0.3074E+00  0.1290E+01  0.1290E+01
      1.791  0.6768E-01  0.6979E-01  0.1296E+01  0.1296E+01
      1.875  0.4434E-01  0.4363E-01  0.1299E+01  0.1299E+01
      1.958  0.1489E+00  0.1442E+00  0.1312E+01  0.1312E+01
      2.042  0.4334E+00  0.4269E+00  0.1348E+01  0.1347E+01
      2.125  0.4743E+00  0.4794E+00  0.1388E+01  0.1387E+01
      2.208  0.1853E+00  0.1908E+00  0.1403E+01  0.1403E+01
      2.292  0.4926E-01  0.5054E-01  0.1407E+01  0.1407E+01
      2.375  0.4693E-01  0.4584E-01  0.1411E+01  0.1411E+01
      2.459  0.1901E+00  0.1837E+00  0.1427E+01  0.1427E+01
      2.542  0.7110E+00  0.6944E+00  0.1487E+01  0.1484E+01
      2.625  0.1226E+01  0.1226E+01  0.1589E+01  0.1587E+01
      2.709  0.7024E+00  0.7189E+00  0.1647E+01  0.1647E+01
      2.792  0.1916E+00  0.1979E+00  0.1663E+01  0.1663E+01
      2.875  0.6606E-01  0.6648E-01  0.1669E+01  0.1669E+01
      2.959  0.1502E+00  0.1455E+00  0.1681E+01  0.1681E+01
      3.042  0.6129E+00  0.5959E+00  0.1733E+01  0.1731E+01
      3.126  0.1473E+01  0.1460E+01  0.1855E+01  0.1852E+01
      3.209  0.1229E+01  0.1249E+01  0.1958E+01  0.1957E+01
      3.292  0.4008E+00  0.4133E+00  0.1991E+01  0.1991E+01
      3.376  0.9677E-01  0.9950E-01  0.1999E+01  0.1999E+01
      3.459  0.7397E-01  0.7263E-01  0.2006E+01  0.2005E+01
      3.543  0.2669E+00  0.2589E+00  0.2028E+01  0.2027E+01
      3.626  0.8212E+00  0.8082E+00  0.2097E+01  0.2095E+01
      3.709  0.9817E+00  0.9899E+00  0.2179E+01  0.2177E+01
      3.793  0.4091E+00  0.4202E+00  0.2213E+01  0.2212E+01
      3.876  0.1066E+00  0.1095E+00  0.2222E+01  0.2221E+01
      3.959  0.8032E-01  0.7889E-01  0.2228E+01  0.2228E+01
      4.043  0.2958E+00  0.2867E+00  0.2253E+01  0.2252E+01
      4.126  0.1023E+01  0.1003E+01  0.2339E+01  0.2336E+01
      4.210  0.1546E+01  0.1550E+01  0.2467E+01  0.2465E+01
      4.293  0.8024E+00  0.8214E+00  0.2534E+01  0.2534E+01
      4.376  0.2131E+00  0.2197E+00  0.2552E+01  0.2552E+01
      4.460  0.8249E-01  0.8258E-01  0.2559E+01  0.2559E+01
      4.543  0.2097E+00  0.2054E+00  0.2577E+01  0.2576E+01
      4.627  0.7956E+00  0.7772E+00  0.2643E+01  0.2641E+01
      4.710  0.1545E+01  0.1540E+01  0.2772E+01  0.2769E+01
      4.793  0.1030E+01  0.1049E+01  0.2858E+01  0.2857E+01
      4.877  0.3028E+00  0.3120E+00  0.2883E+01  0.2883E+01
      4.960  0.9034E-01  0.9156E-01  0.2891E+01  0.2890E+01
      5.043  0.1529E+00  0.1490E+00  0.2903E+01  0.2903E+01
      5.127  0.5508E+00  0.5386E+00  0.2949E+01  0.2948E+01
      5.210  0.1046E+01  0.1044E+01  0.3037E+01  0.3035E+01
      5.294  0.6619E+00  0.6747E+00  0.3092E+01  0.3091E+01
      5.377  0.1891E+00  0.1946E+00  0.3108E+01  0.3108E+01
      5.460  0.6354E-01  0.6422E-01  0.3113E+01  0.3113E+01
      5.544  0.1286E+00  0.1263E+00  0.3124E+01  0.3123E+01
      5.627  0.3985E+00  0.3936E+00  0.3157E+01  0.3156E+01
      5.710  0.5690E+00  0.5688E+00  0.3205E+01  0.3204E+01
      5.794  0.4832E+00  0.4802E+00  0.3245E+01  0.3244E+01
      5.877  0.5830E+00  0.5816E+00  0.3293E+01  0.3292E+01
      5.961  0.4187E+00  0.4250E+00  0.3328E+01  0.3328E+01
      6.044  0.3818E+00  0.3789E+00  0.3360E+01  0.3359E+01
      6.127  0.1068E+01  0.1051E+01  0.3449E+01  0.3447E+01
      6.211  0.2011E+01  0.2001E+01  0.3617E+01  0.3614E+01
      6.294  0.1630E+01  0.1643E+01  0.3753E+01  0.3751E+01
      6.378  0.9548E+00  0.9622E+00  0.3833E+01  0.3831E+01
      6.461  0.5257E+00  0.5348E+00  0.3876E+01  0.3876E+01
      6.544  0.2758E+00  0.2779E+00  0.3899E+01  0.3899E+01
      6.628  0.4418E+00  0.4380E+00  0.3937E+01  0.3936E+01
      6.711  0.5789E+00  0.5789E+00  0.3985E+01  0.3984E+01
      6.794  0.5539E+00  0.5479E+00  0.4031E+01  0.4030E+01
      6.878  0.9774E+00  0.9673E+00  0.4113E+01  0.4111E+01
      6.961  0.9547E+00  0.9652E+00  0.4192E+01  0.4191E+01
      7.045  0.5375E+00  0.5446E+00  0.4237E+01  0.4237E+01
      7.128  0.7990E+00  0.7927E+00  0.4304E+01  0.4303E+01
      7.211  0.1056E+01  0.1059E+01  0.4392E+01  0.4391E+01
      7.295  0.5469E+00  0.5532E+00  0.4438E+01  0.4437E+01
      7.378  0.2732E+00  0.2738E+00  0.4461E+01  0.4460E+01
      7.462  0.1806E+00  0.1829E+00  0.4476E+01  0.4475E+01
      7.545  0.8495E-01  0.8616E-01  0.4483E+01  0.4483E+01
      7.628  0.1393E+00  0.1370E+00  0.4494E+01  0.4494E+01
      7.712  0.5408E+00  0.5312E+00  0.4540E+01  0.4538E+01
      7.795  0.1337E+01  0.1324E+01  0.4651E+01  0.4649E+01
      7.878  0.1644E+01  0.1641E+01  0.4788E+01  0.4786E+01
      7.962  0.1153E+01  0.1168E+01  0.4884E+01  0.4883E+01
      8.045  0.4003E+00  0.4109E+00  0.4918E+01  0.4917E+01
      8.129  0.1228E+00  0.1247E+00  0.4928E+01  0.4928E+01
      8.212  0.1774E+00  0.1742E+00  0.4943E+01  0.4942E+01
      8.295  0.4514E+00  0.4467E+00  0.4981E+01  0.4980E+01
      8.379  0.4618E+00  0.4661E+00  0.5019E+01  0.5019E+01
      8.462  0.1857E+00  0.1894E+00  0.5035E+01  0.5035E+01
      8.546  0.1224E+00  0.1218E+00  0.5045E+01  0.5045E+01
      8.629  0.3967E+00  0.3902E+00  0.5078E+01  0.5077E+01
      8.712  0.1185E+01  0.1173E+01  0.5177E+01  0.5175E+01
      8.796  0.1610E+01  0.1610E+01  0.5311E+01  0.5310E+01
      8.879  0.1162E+01  0.1167E+01  0.5408E+01  0.5407E+01
      8.962  0.6512E+00  0.6586E+00  0.5463E+01  0.5462E+01
      9.046  0.2986E+00  0.2986E+00  0.5487E+01  0.5487E+01
      9.129  0.4562E+00  0.4425E+00  0.5526E+01  0.5524E+01
      9.213  0.1068E+01  0.1058E+01  0.5615E+01  0.5612E+01
      9.296  0.1443E+01  0.1451E+01  0.5735E+01  0.5733E+01
      9.379  0.1104E+01  0.1110E+01  0.5827E+01  0.5826E+01
      9.463  0.9258E+00  0.9203E+00  0.5905E+01  0.5903E+01
      9.546  0.1028E+01  0.1013E+01  0.5990E+01  0.5987E+01
      9.630  0.1145E+01  0.1151E+01  0.6086E+01  0.6083E+01
      9.713  0.5855E+00  0.6075E+00  0.6135E+01  0.6134E+01
      9.796  0.2297E+00  0.2353E+00  0.6154E+01  0.6154E+01
      9.880  0.3440E+00  0.3395E+00  0.6183E+01  0.6182E+01
      9.963  0.5334E+00  0.5340E+00  0.6227E+01  0.6227E+01
     10.046  0.3061E+00  0.3118E+00  0.6253E+01  0.6253E+01
     10.130  0.1564E+00  0.1569E+00  0.6266E+01  0.6266E+01
     10.213  0.3754E+00  0.3692E+00  0.6297E+01  0.6297E+01
     10.297  0.9954E+00  0.9849E+00  0.6380E+01  0.6379E+01
     10.380  0.1158E+01  0.1151E+01  0.6477E+01  0.6475E+01
     10.463  0.8796E+00  0.8783E+00  0.6550E+01  0.6548E+01
     10.547  0.6313E+00  0.6367E+00  0.6603E+01  0.6601E+01
     10.630  0.8380E+00  0.8237E+00  0.6673E+01  0.6670E+01
     10.714  0.1074E+01  0.1081E+01  0.6763E+01  0.6760E+01
     10.797  0.6100E+00  0.6272E+00  0.6813E+01  0.6812E+01
     10.880  0.5794E+00  0.5776E+00  0.6862E+01  0.6861E+01
     10.964  0.1045E+01  0.1042E+01  0.6949E+01  0.6948E+01
     11.047  0.8106E+00  0.8193E+00  0.7017E+01  0.7016E+01
     11.130  0.4336E+00  0.4345E+00  0.7053E+01  0.7052E+01
     11.214  0.7879E+00  0.7768E+00  0.7118E+01  0.7117E+01
     11.297  0.1409E+01  0.1391E+01  0.7236E+01  0.7233E+01
     11.381  0.1618E+01  0.1597E+01  0.7371E+01  0.7366E+01
     11.464  0.1547E+01  0.1565E+01  0.7500E+01  0.7497E+01
     11.547  0.8197E+00  0.8461E+00  0.7568E+01  0.7567E+01
     11.631  0.2570E+00  0.2664E+00  0.7590E+01  0.7590E+01
     11.714  0.1551E+00  0.1553E+00  0.7603E+01  0.7603E+01
     11.798  0.3688E+00  0.3649E+00  0.7634E+01  0.7633E+01
     11.881  0.5152E+00  0.5166E+00  0.7677E+01  0.7677E+01
     11.964  0.2480E+00  0.2516E+00  0.7698E+01  0.7698E+01
     12.048  0.7205E-01  0.7302E-01  0.7704E+01  0.7704E+01
     12.131  0.7238E-01  0.7135E-01  0.7710E+01  0.7710E+01
     12.214  0.2838E+00  0.2785E+00  0.7733E+01  0.7733E+01
     12.298  0.8874E+00  0.8760E+00  0.7807E+01  0.7806E+01
     12.381  0.1239E+01  0.1230E+01  0.7911E+01  0.7908E+01
     12.465  0.1008E+01  0.1004E+01  0.7995E+01  0.7992E+01
     12.548  0.8232E+00  0.8255E+00  0.8063E+01  0.8061E+01
     12.631  0.9496E+00  0.9418E+00  0.8143E+01  0.8139E+01
     12.715  0.1239E+01  0.1224E+01  0.8246E+01  0.8242E+01
     12.798  0.1327E+01  0.1323E+01  0.8357E+01  0.8352E+01
     12.882  0.1248E+01  0.1229E+01  0.8461E+01  0.8455E+01
     12.965  0.1136E+01  0.1162E+01  0.8556E+01  0.8552E+01
     13.048  0.7449E+00  0.7651E+00  0.8618E+01  0.8616E+01
     13.132  0.1071E+01  0.1064E+01  0.8708E+01  0.8705E+01
     13.215  0.1282E+01  0.1297E+01  0.8815E+01  0.8813E+01
     13.298  0.8836E+00  0.8976E+00  0.8889E+01  0.8888E+01
     13.382  0.4003E+00  0.4044E+00  0.8922E+01  0.8922E+01
     13.465  0.2296E+00  0.2288E+00  0.8941E+01  0.8941E+01
     13.549  0.2021E+00  0.2026E+00  0.8958E+01  0.8958E+01
     13.632  0.2008E+00  0.1977E+00  0.8975E+01  0.8974E+01
     13.715  0.5985E+00  0.5826E+00  0.9025E+01  0.9023E+01
     13.799  0.1665E+01  0.1644E+01  0.9164E+01  0.9160E+01
     13.882  0.2367E+01  0.2355E+01  0.9361E+01  0.9357E+01
     13.966  0.1931E+01  0.1935E+01  0.9522E+01  0.9518E+01
     14.049  0.9589E+00  0.9913E+00  0.9602E+01  0.9601E+01
     14.132  0.2623E+00  0.2774E+00  0.9624E+01  0.9624E+01
     14.216  0.5292E-01  0.5610E-01  0.9629E+01  0.9629E+01
     14.299  0.1436E-01  0.1477E-01  0.9630E+01  0.9630E+01
     14.382  0.2946E-01  0.2734E-01  0.9633E+01  0.9632E+01
     14.466  0.1518E+00  0.1412E+00  0.9645E+01  0.9644E+01
     14.549  0.7021E+00  0.6597E+00  0.9704E+01  0.9699E+01
     14.633  0.2226E+01  0.2151E+01  0.9889E+01  0.9879E+01
     14.716  0.3366E+01  0.3378E+01  0.1017E+02  0.1016E+02
     14.799  0.2074E+01  0.2150E+01  0.1034E+02  0.1034E+02
     14.883  0.6142E+00  0.6471E+00  0.1039E+02  0.1039E+02
     14.966  0.1412E+00  0.1478E+00  0.1041E+02  0.1041E+02
     15.049  0.8576E-01  0.8172E-01  0.1041E+02  0.1041E+02
     15.133  0.2904E+00  0.2690E+00  0.1044E+02  0.1044E+02
     15.216  0.8619E+00  0.8293E+00  0.1051E+02  0.1050E+02
     15.300  0.9953E+00  0.1016E+01  0.1059E+02  0.1059E+02
     15.383  0.5476E+00  0.5651E+00  0.1064E+02  0.1064E+02
     15.466  0.5513E+00  0.5471E+00  0.1068E+02  0.1068E+02
     15.550  0.5090E+00  0.5202E+00  0.1073E+02  0.1073E+02
     15.633  0.3606E+00  0.3628E+00  0.1076E+02  0.1076E+02
     15.717  0.8138E+00  0.7932E+00  0.1083E+02  0.1082E+02
     15.800  0.1546E+01  0.1538E+01  0.1095E+02  0.1095E+02
     15.883  0.1049E+01  0.1074E+01  0.1104E+02  0.1104E+02
     15.967  0.3128E+00  0.3257E+00  0.1107E+02  0.1107E+02
     16.050  0.9058E-01  0.9262E-01  0.1108E+02  0.1108E+02
     16.133  0.1418E+00  0.1375E+00  0.1109E+02  0.1109E+02
     16.217  0.4917E+00  0.4781E+00  0.1113E+02  0.1113E+02
     16.300  0.8871E+00  0.8842E+00  0.1120E+02  0.1120E+02
     16.384  0.5837E+00  0.5928E+00  0.1125E+02  0.1125E+02
     16.467  0.4345E+00  0.4208E+00  0.1129E+02  0.1129E+02
     16.550  0.8903E+00  0.8628E+00  0.1136E+02  0.1136E+02
     16.634  0.9577E+00  0.9793E+00  0.1144E+02  0.1144E+02
     16.717  0.3727E+00  0.3972E+00  0.1147E+02  0.1147E+02
     16.801  0.8617E-01  0.9304E-01  0.1148E+02  0.1148E+02
     16.884  0.2305E-01  0.2411E-01  0.1148E+02  0.1148E+02
     16.967  0.3331E-01  0.3149E-01  0.1148E+02  0.1148E+02
     17.051  0.1635E+00  0.1552E+00  0.1150E+02  0.1150E+02
     17.134  0.6108E+00  0.5893E+00  0.1155E+02  0.1155E+02
     17.217  0.1051E+01  0.1051E+01  0.1164E+02  0.1163E+02
     17.301  0.6000E+00  0.6215E+00  0.1169E+02  0.1169E+02
     17.384  0.1610E+00  0.1694E+00  0.1170E+02  0.1170E+02
     17.468  0.4198E-01  0.4317E-01  0.1170E+02  0.1170E+02
     17.551  0.5094E-01  0.4847E-01  0.1171E+02  0.1171E+02
     17.634  0.1373E+00  0.1326E+00  0.1172E+02  0.1172E+02
     17.718  0.1633E+00  0.1661E+00  0.1173E+02  0.1173E+02
     17.801  0.6745E-01  0.7146E-01  0.1174E+02  0.1174E+02
     17.885  0.1569E-01  0.1687E-01  0.1174E+02  0.1174E+02
     17.968  0.3091E-02  0.3335E-02  0.1174E+02  0.1174E+02
     18.051  0.0000E+00  0.0000E+00  0.1174E+02  0.1174E+02
     18.135  0.0000E+00  0.0000E+00  0.1174E+02  0.1174E+02
     18.218  0.1031E-03  0.9824E-04  0.1174E+02  0.1174E+02
     18.301  0.4433E-03  0.4222E-03  0.1174E+02  0.1174E+02
     18.385  0.2344E-02  0.2233E-02  0.1174E+02  0.1174E+02
     18.468  0.1229E-01  0.1171E-01  0.1174E+02  0.1174E+02
     18.552  0.6151E-01  0.5878E-01  0.1175E+02  0.1175E+02
     18.635  0.2491E+00  0.2407E+00  0.1177E+02  0.1177E+02
     18.718  0.5160E+00  0.5126E+00  0.1181E+02  0.1181E+02
     18.802  0.3587E+00  0.3680E+00  0.1184E+02  0.1184E+02
     18.885  0.1050E+00  0.1095E+00  0.1185E+02  0.1185E+02
     18.969  0.2190E-01  0.2296E-01  0.1185E+02  0.1185E+02
     19.052  0.4214E-02  0.4423E-02  0.1185E+02  0.1185E+02
     19.135  0.1860E-03  0.1755E-03  0.1185E+02  0.1185E+02
     19.219  0.7991E-03  0.7542E-03  0.1185E+02  0.1185E+02
     19.302  0.4219E-02  0.3983E-02  0.1185E+02  0.1185E+02
     19.385  0.2192E-01  0.2072E-01  0.1185E+02  0.1185E+02
     19.469  0.1051E+00  0.9983E-01  0.1186E+02  0.1186E+02
     19.552  0.3589E+00  0.3479E+00  0.1189E+02  0.1189E+02
     19.636  0.5159E+00  0.5192E+00  0.1194E+02  0.1193E+02
     19.719  0.2489E+00  0.2591E+00  0.1196E+02  0.1196E+02
     19.802  0.6145E-01  0.6484E-01  0.1196E+02  0.1196E+02
     19.886  0.1227E-01  0.1299E-01  0.1196E+02  0.1196E+02
     19.969  0.2404E-02  0.2539E-02  0.1196E+02  0.1196E+02
     20.053  0.2678E-03  0.2489E-03  0.1196E+02  0.1196E+02
     20.136  0.1414E-02  0.1314E-02  0.1196E+02  0.1196E+02
     20.219  0.7344E-02  0.6838E-02  0.1196E+02  0.1196E+02
     20.303  0.3518E-01  0.3298E-01  0.1197E+02  0.1197E+02
     20.386  0.1200E+00  0.1153E+00  0.1198E+02  0.1198E+02
     20.469  0.1718E+00  0.1733E+00  0.1199E+02  0.1199E+02
     20.553  0.8267E-01  0.8696E-01  0.1200E+02  0.1200E+02
     20.636  0.2038E-01  0.2182E-01  0.1200E+02  0.1200E+02
     20.720  0.4071E-02  0.4375E-02  0.1200E+02  0.1200E+02
     20.803  0.7765E-03  0.8353E-03  0.1200E+02  0.1200E+02
     20.886  0.0000E+00  0.0000E+00  0.1200E+02  0.1200E+02
     20.970  0.0000E+00  0.0000E+00  0.1200E+02  0.1200E+02
     21.053  0.0000E+00  0.0000E+00  0.1200E+02  0.1200E+02
     21.137  0.0000E+00  0.0000E+00  0.1200E+02  0.1200E+02
     21.220  0.0000E+00  0.0000E+00  0.1200E+02  0.1200E+02
     21.303  0.0000E+00  0.0000E+00  0.1200E+02  0.1200E+02
     21.387  0.0000E+00  0.0000E+00  0.1200E+02  0.1200E+02
     21.470  0.0000E+00  0.0000E+00  0.1200E+02  0.1200E+02
     21.553  0.0000E+00  0.0000E+00  0.1200E+02  0.1200E+02
     21.55343503     -3.46173206  301      9.55562616      1.00000000
     -3.462  0.0000E+00  0.0000E+00  0.0000E+00  0.0000E+00  0.0000E+00  0.0000E+00  0.0000E+00  0.0000E+00  0.0000E+00  0.0000E+00  0.0000E+00  0.0000E+00  0.0000E+00  0.0000E+00  0.0000E+00  0.0000E+00  0.0000E+00  0.0000E+00
     -3.378  0.0000E+00  0.0000E+00  0.0000E+00  0.0000E+00  0.0000E+00  0.0000E+00  0.0000E+00  0.0000E+00  0.0000E+00  0.0000E+00  0.0000E+00  0.0000E+00  0.0000E+00  0.0000E+00  0.0000E+00  0.0000E+00  0.0000E+00  0.0000E+00
     -3.295  0.0000E+00  0.0000E+00  0.0000E+00  0.0000E+00  0.0000E+00  0.0000E+00  0.0000E+00  0.0000E+00  0.0000E+00  0.0000E+00  0.0000E+00  0.0000E+00  0.0000E+00  0.0000E+00  0.0000E+00  0.0000E+00  0.0000E+00  0.0000E+00
     -3.212  0.0000E+00  0.0000E+00  0.0000E+00  0.0000E+00  0.0000E+00  0.0000E+00  0.0000E+00  0.0000E+00  0.0000E+00  0.0000E+00  0.0000E+00  0.0000E+00  0.0000E+00  0.0000E+00  0.0000E+00  0.0000E+00  0.0000E+00  0.0000E+00
     -3.128  0.0000E+00  0.0000E+00  0.0000E+00  0.0000E+00  0.0000E+00  0.0000E+00  0.0000E+00  0.0000E+00  0.0000E+00  0.0000E+00  0.0000E+00  0.0000E+00  0.0000E+00  0.0000E+00  0.0000E+00  0.0000E+00  0.0000E+00  0.0000E+00
     -3.045  0.0000E+00  0.0000E+00  0.0000E+00  0.0000E+00  0.0000E+00  0.0000E+00  0.0000E+00  0.0000E+00  0.0000E+00  0.0000E+00  0.0000E+00  0.0000E+00  0.0000E+00  0.0000E+00  0.0000E+00  0.0000E+00  0.0000E+00  0.0000E+00
     -2.961  0.0000E+00  0.0000E+00  0.0000E+00  0.0000E+00  0.0000E+00  0.0000E+00  0.0000E+00  0.0000E+00  0.0000E+00  0.0000E+00  0.0000E+00  0.0000E+00  0.0000E+00  0.0000E+00  0.0000E+00  0.0000E+00  0.0000E+00  0.0000E+00
     -2.878  0.0000E+00  0.0000E+00  0.0000E+00  0.0000E+00  0.0000E+00  0.0000E+00  0.0000E+00  0.0000E+00  0.0000E+00  0.0000E+00  0.0000E+00  0.0000E+00  0.0000E+00  0.0000E+00  0.0000E+00  0.0000E+00  0.0000E+00  0.0000E+00
     -2.795  0.2718E-05  0.2609E-05  0.1487E-07  0.1428E-07  0.1487E-07  0.1428E-07  0.1487E-07  0.1428E-07  0.0000E+00  0.0000E+00  0.0000E+00  0.0000E+00  0.0000E+00  0.0000E+00  0.0000E+00  0.0000E+00  0.0000E+00  0.0000E+00
     -2.711  0.1168E-04  0.1121E-04  0.6391E-07  0.6138E-07  0.6391E-07  0.6138E-07  0.6391E-07  0.6138E-07  0.0000E+00  0.0000E+00  0.0000E+00  0.0000E+00  0.0000E+00  0.0000E+00  0.0000E+00  0.0000E+00  0.0000E+00  0.0000E+00
     -2.628  0.6177E-04  0.5930E-04  0.3379E-06  0.3246E-06  0.3379E-06  0.3246E-06  0.3379E-06  0.3246E-06  0.0000E+00  0.0000E+00  0.0000E+00  0.0000E+00  0.0000E+00  0.0000E+00  0.0000E+00  0.0000E+00  0.0000E+00  0.0000E+00
     -2.545  0.3235E-03  0.3108E-03  0.1770E-05  0.1701E-05  0.1770E-05  0.1701E-05  0.1770E-05  0.1701E-05  0.0000E+00  0.0000E+00  0.0000E+00  0.0000E+00  0.0000E+00  0.0000E+00  0.0000E+00  0.0000E+00  0.0000E+00  0.0000E+00
     -2.461  0.1613E-02  0.1553E-02  0.8826E-05  0.8501E-05  0.8826E-05  0.8501E-05  0.8826E-05  0.8501E-05  0.0000E+00  0.0000E+00  0.0000E+00  0.0000E+00  0.0000E+00  0.0000E+00  0.0000E+00  0.0000E+00  0.0000E+00  0.0000E+00
     -2.378  0.6431E-02  0.6251E-02  0.3518E-04  0.3421E-04  0.3518E-04  0.3421E-04  0.3518E-04  0.3421E-04  0.0000E+00  0.0000E+00  0.0000E+00  0.0000E+00  0.0000E+00  0.0000E+00  0.0000E+00  0.0000E+00  0.0000E+00  0.0000E+00
     -2.294  0.1281E-01  0.1275E-01  0.7009E-04  0.6977E-04  0.7009E-04  0.6977E-04  0.7009E-04  0.6977E-04  0.0000E+00  0.0000E+00  0.0000E+00  0.0000E+00  0.0000E+00  0.0000E+00  0.0000E+00  0.0000E+00  0.0000E+00  0.0000E+00
     -2.211  0.8540E-02  0.8721E-02  0.4693E-04  0.4793E-04  0.4693E-04  0.4793E-04  0.4693E-04  0.4793E-04  0.0000E+00  0.0000E+00  0.0000E+00  0.0000E+00  0.0000E+00  0.0000E+00  0.0000E+00  0.0000E+00  0.0000E+00  0.0000E+00
     -2.128  0.2497E-02  0.2581E-02  0.1455E-04  0.1498E-04  0.1455E-04  0.1498E-04  0.1455E-04  0.1498E-04  0.0000E+00  0.0000E+00  0.0000E+00  0.0000E+00  0.0000E+00  0.0000E+00  0.0000E+00  0.0000E+00  0.0000E+00  0.0000E+00
     -2.044  0.8153E-03  0.8227E-03  0.9170E-05  0.9028E-05  0.9170E-05  0.9028E-05  0.9170E-05  0.9028E-05  0.0000E+00  0.0000E+00  0.0000E+00  0.0000E+00  0.0000E+00  0.0000E+00  0.0000E+00  0.0000E+00  0.0000E+00  0.0000E+00
     -1.961  0.1705E-02  0.1646E-02  0.3378E-04  0.3252E-04  0.3378E-04  0.3252E-04  0.3378E-04  0.3252E-04  0.0000E+00  0.0000E+00  0.0000E+00  0.0000E+00  0.0000E+00  0.0000E+00  0.0000E+00  0.0000E+00  0.0000E+00  0.0000E+00
     -1.877  0.7678E-02  0.7408E-02  0.1588E-03  0.1533E-03  0.1588E-03  0.1533E-03  0.1588E-03  0.1533E-03  0.0000E+00  0.0000E+00  0.0000E+00  0.0000E+00  0.0000E+00  0.0000E+00  0.0000E+00  0.0000E+00  0.0000E+00  0.0000E+00
     -1.794  0.2589E-01  0.2533E-01  0.5353E-03  0.5240E-03  0.5353E-03  0.5240E-03  0.5353E-03  0.5240E-03  0.0000E+00  0.0000E+00  0.0000E+00  0.0000E+00  0.0000E+00  0.0000E+00  0.0000E+00  0.0000E+00  0.0000E+00  0.0000E+00
     -1.711  0.3631E-01  0.3647E-01  0.7508E-03  0.7545E-03  0.7508E-03  0.7545E-03  0.7508E-03  0.7545E-03  0.0000E+00  0.0000E+00  0.0000E+00  0.0000E+00  0.0000E+00  0.0000E+00  0.0000E+00  0.0000E+00  0.0000E+00  0.0000E+00
     -1.627  0.1717E-01  0.1765E-01  0.3555E-03  0.3654E-03  0.3555E-03  0.3654E-03  0.3555E-03  0.3654E-03  0.0000E+00  0.0000E+00  0.0000E+00  0.0000E+00  0.0000E+00  0.0000E+00  0.0000E+00  0.0000E+00  0.0000E+00  0.0000E+00
     -1.544  0.4300E-02  0.4452E-02  0.9059E-04  0.9370E-04  0.9059E-04  0.9370E-04  0.9059E-04  0.9370E-04  0.0000E+00  0.0000E+00  0.0000E+00  0.0000E+00  0.0000E+00  0.0000E+00  0.0000E+00  0.0000E+00  0.0000E+00  0.0000E+00
     -1.461  0.1380E-02  0.1391E-02  0.3727E-04  0.3718E-04  0.3727E-04  0.3718E-04  0.3727E-04  0.3718E-04  0.0000E+00  0.0000E+00  0.0000E+00  0.0000E+00  0.0000E+00  0.0000E+00  0.0000E+00  0.0000E+00  0.0000E+00  0.0000E+00
     -1.377  0.2932E-02  0.2832E-02  0.1052E-03  0.1015E-03  0.1052E-03  0.1015E-03  0.1052E-03  0.1015E-03  0.0000E+00  0.0000E+00  0.0000E+00  0.0000E+00  0.0000E+00  0.0000E+00  0.0000E+00  0.0000E+00  0.0000E+00  0.0000E+00
     -1.294  0.1223E-01  0.1184E-01  0.4495E-03  0.4354E-03  0.4495E-03  0.4354E-03  0.4495E-03  0.4354E-03  0.0000E+00  0.0000E+00  0.0000E+00  0.0000E+00  0.0000E+00  0.0000E+00  0.0000E+00  0.0000E+00  0.0000E+00  0.0000E+00
     -1.210  0.3183E-01  0.3141E-01  0.1170E-02  0.1156E-02  0.1170E-02  0.1156E-02  0.1170E-02  0.1156E-02  0.0000E+00  0.0000E+00  0.0000E+00  0.0000E+00  0.0000E+00  0.0000E+00  0.0000E+00  0.0000E+00  0.0000E+00  0.0000E+00
     -1.127  0.2952E-01  0.2994E-01  0.1086E-02  0.1102E-02  0.1086E-02  0.1102E-02  0.1086E-02  0.1102E-02  0.0000E+00  0.0000E+00  0.0000E+00  0.0000E+00  0.0000E+00  0.0000E+00  0.0000E+00  0.0000E+00  0.0000E+00  0.0000E+00
     -1.044  0.1028E-01  0.1060E-01  0.3787E-03  0.3909E-03  0.3787E-03  0.3909E-03  0.3787E-03  0.3909E-03  0.0000E+00  0.0000E+00  0.0000E+00  0.0000E+00  0.0000E+00  0.0000E+00  0.0000E+00  0.0000E+00  0.0000E+00  0.0000E+00
     -0.960  0.2497E-02  0.2572E-02  0.9623E-04  0.9887E-04  0.9623E-04  0.9887E-04  0.9623E-04  0.9887E-04  0.0000E+00  0.0000E+00  0.0000E+00  0.0000E+00  0.0000E+00  0.0000E+00  0.0000E+00  0.0000E+00  0.0000E+00  0.0000E+00
     -0.877  0.1765E-02  0.1730E-02  0.8801E-04  0.8589E-04  0.8801E-04  0.8589E-04  0.8801E-04  0.8589E-04  0.0000E+00  0.0000E+00  0.0000E+00  0.0000E+00  0.0000E+00  0.0000E+00  0.0000E+00  0.0000E+00  0.0000E+00  0.0000E+00
     -0.793  0.6554E-02  0.6315E-02  0.3551E-03  0.3424E-03  0.3551E-03  0.3424E-03  0.3551E-03  0.3424E-03  0.0000E+00  0.0000E+00  0.0000E+00  0.0000E+00  0.0000E+00  0.0000E+00  0.0000E+00  0.0000E+00  0.0000E+00  0.0000E+00
     -0.710  0.2501E-01  0.2436E-01  0.1355E-02  0.1321E-02  0.1355E-02  0.1321E-02  0.1355E-02  0.1321E-02  0.0000E+00  0.0000E+00  0.0000E+00  0.0000E+00  0.0000E+00  0.0000E+00  0.0000E+00  0.0000E+00  0.0000E+00  0.0000E+00
     -0.627  0.4507E-01  0.4497E-01  0.2442E-02  0.2438E-02  0.2442E-02  0.2438E-02  0.2442E-02  0.2438E-02  0.0000E+00  0.0000E+00  0.0000E+00  0.0000E+00  0.0000E+00  0.0000E+00  0.0000E+00  0.0000E+00  0.0000E+00  0.0000E+00
     -0.543  0.2698E-01  0.2760E-01  0.1463E-02  0.1497E-02  0.1463E-02  0.1497E-02  0.1463E-02  0.1497E-02  0.0000E+00  0.0000E+00  0.0000E+00  0.0000E+00  0.0000E+00  0.0000E+00  0.0000E+00  0.0000E+00  0.0000E+00  0.0000E+00
     -0.460  0.7451E-02  0.7704E-02  0.4063E-03  0.4202E-03  0.4063E-03  0.4202E-03  0.4063E-03  0.4202E-03  0.0000E+00  0.0000E+00  0.0000E+00  0.0000E+00  0.0000E+00  0.0000E+00  0.0000E+00  0.0000E+00  0.0000E+00  0.0000E+00
     -0.377  0.2234E-02  0.2262E-02  0.1346E-03  0.1357E-03  0.1346E-03  0.1357E-03  0.1346E-03  0.1357E-03  0.0000E+00  0.0000E+00  0.0000E+00  0.0000E+00  0.0000E+00  0.0000E+00  0.0000E+00  0.0000E+00  0.0000E+00  0.0000E+00
     -0.293  0.4092E-02  0.3958E-02  0.2917E-03  0.2819E-03  0.2917E-03  0.2819E-03  0.2917E-03  0.2819E-03  0.0000E+00  0.0000E+00  0.0000E+00  0.0000E+00  0.0000E+00  0.0000E+00  0.0000E+00  0.0000E+00  0.0000E+00  0.0000E+00
     -0.210  0.1752E-01  0.1694E-01  0.1272E-02  0.1230E-02  0.1272E-02  0.1230E-02  0.1272E-02  0.1230E-02  0.0000E+00  0.0000E+00  0.0000E+00  0.0000E+00  0.0000E+00  0.0000E+00  0.0000E+00  0.0000E+00  0.0000E+00  0.0000E+00
     -0.126  0.5210E-01  0.5120E-01  0.3781E-02  0.3718E-02  0.3781E-02  0.3718E-02  0.3781E-02  0.3718E-02  0.0000E+00  0.0000E+00  0.0000E+00  0.0000E+00  0.0000E+00  0.0000E+00  0.0000E+00  0.0000E+00  0.0000E+00  0.0000E+00
     -0.043  0.5889E-01  0.5945E-01  0.4274E-02  0.4317E-02  0.4274E-02  0.4317E-02  0.4274E-02  0.4317E-02  0.0000E+00  0.0000E+00  0.0000E+00  0.0000E+00  0.0000E+00  0.0000E+00  0.0000E+00  0.0000E+00  0.0000E+00  0.0000E+00
      0.040  0.2344E-01  0.2414E-01  0.1702E-02  0.1753E-02  0.1702E-02  0.1753E-02  0.1702E-02  0.1753E-02  0.0000E+00  0.0000E+00  0.0000E+00  0.0000E+00  0.0000E+00  0.0000E+00  0.0000E+00  0.0000E+00  0.0000E+00  0.0000E+00
      0.124  0.5515E-02  0.5708E-02  0.4030E-03  0.4172E-03  0.4030E-03  0.4172E-03  0.4030E-03  0.4172E-03  0.0000E+00  0.0000E+00  0.0000E+00  0.0000E+00  0.0000E+00  0.0000E+00  0.0000E+00  0.0000E+00  0.0000E+00  0.0000E+00
      0.207  0.1803E-02  0.1815E-02  0.1457E-03  0.1460E-03  0.1457E-03  0.1460E-03  0.1457E-03  0.1460E-03  0.0000E+00  0.0000E+00  0.0000E+00  0.0000E+00  0.0000E+00  0.0000E+00  0.0000E+00  0.0000E+00  0.0000E+00  0.0000E+00
      0.291  0.3734E-02  0.3597E-02  0.3450E-03  0.3325E-03  0.3450E-03  0.3325E-03  0.3450E-03  0.3325E-03  0.0000E+00  0.0000E+00  0.0000E+00  0.0000E+00  0.0000E+00  0.0000E+00  0.0000E+00  0.0000E+00  0.0000E+00  0.0000E+00
      0.374  0.1496E-01  0.1455E-01  0.1382E-02  0.1345E-02  0.1382E-02  0.1345E-02  0.1382E-02  0.1345E-02  0.0000E+00  0.0000E+00  0.0000E+00  0.0000E+00  0.0000E+00  0.0000E+00  0.0000E+00  0.0000E+00  0.0000E+00  0.0000E+00
      0.457  0.3018E-01  0.3002E-01  0.2788E-02  0.2775E-02  0.2788E-02  0.2775E-02  0.2788E-02  0.2775E-02  0.0000E+00  0.0000E+00  0.0000E+00  0.0000E+00  0.0000E+00  0.0000E+00  0.0000E+00  0.0000E+00  0.0000E+00  0.0000E+00
      0.541  0.2039E-01  0.2081E-01  0.1885E-02  0.1924E-02  0.1885E-02  0.1924E-02  0.1885E-02  0.1924E-02  0.0000E+00  0.0000E+00  0.0000E+00  0.0000E+00  0.0000E+00  0.0000E+00  0.0000E+00  0.0000E+00  0.0000E+00  0.0000E+00
      0.624  0.5983E-02  0.6179E-02  0.5554E-03  0.5738E-03  0.5554E-03  0.5738E-03  0.5554E-03  0.5738E-03  0.0000E+00  0.0000E+00  0.0000E+00  0.0000E+00  0.0000E+00  0.0000E+00  0.0000E+00  0.0000E+00  0.0000E+00  0.0000E+00
      0.707  0.1831E-02  0.1853E-02  0.1829E-03  0.1845E-03  0.1829E-03  0.1845E-03  0.1829E-03  0.1845E-03  0.0000E+00  0.0000E+00  0.0000E+00  0.0000E+00  0.0000E+00  0.0000E+00  0.0000E+00  0.0000E+00  0.0000E+00  0.0000E+00