   4   4   1   0
  0.1648104E+02  0.4039692E-09  0.4039692E-09  0.4039692E-09  0.5000000E-15
  1.000000000000000E-004
  CAR 
 unknown system                          
     18.69614174     -3.97184732  301      7.92448980      1.00000000
     -3.972  0.0000E+00  0.0000E+00  0.0000E+00  0.0000E+00
     -3.896  0.0000E+00  0.0000E+00  0.0000E+00  0.0000E+00
     -3.821  0.0000E+00  0.0000E+00  0.0000E+00  0.0000E+00
     -3.745  0.0000E+00  0.0000E+00  0.0000E+00  0.0000E+00
     -3.670  0.0000E+00  0.0000E+00  0.0000E+00  0.0000E+00
     -3.594  0.0000E+00  0.0000E+00  0.0000E+00  0.0000E+00
     -3.518  0.0000E+00  0.0000E+00  0.0000E+00  0.0000E+00
     -3.443  0.0000E+00  0.0000E+00  0.0000E+00  0.0000E+00
     -3.367  0.9797E-04  0.9628E-04  0.7402E-05  0.7275E-05
     -3.292  0.3457E-03  0.3398E-03  0.3353E-04  0.3295E-04
     -3.216  0.1561E-02  0.1534E-02  0.1515E-03  0.1489E-03
     -3.141  0.6951E-02  0.6834E-02  0.6767E-03  0.6652E-03
     -3.065  0.2917E-01  0.2872E-01  0.2881E-02  0.2835E-02
     -2.990  0.9743E-01  0.9634E-01  0.1024E-01  0.1011E-01
     -2.914  0.1753E+00  0.1749E+00  0.2349E-01  0.2333E-01
     -2.838  0.1244E+00  0.1256E+00  0.3289E-01  0.3283E-01
     -2.763  0.4374E-01  0.4434E-01  0.3620E-01  0.3618E-01
     -2.687  0.1830E-01  0.1834E-01  0.3758E-01  0.3756E-01
     -2.612  0.3721E-01  0.3668E-01  0.4039E-01  0.4033E-01
     -2.536  0.1392E+00  0.1372E+00  0.5096E-01  0.5075E-01
     -2.461  0.3946E+00  0.3913E+00  0.8077E-01  0.8031E-01
     -2.385  0.5188E+00  0.5201E+00  0.1200E+00  0.1196E+00
     -2.310  0.2711E+00  0.2743E+00  0.1405E+00  0.1403E+00
     -2.234  0.8175E-01  0.8295E-01  0.1466E+00  0.1466E+00
     -2.158  0.3245E-01  0.3253E-01  0.1491E+00  0.1491E+00
     -2.083  0.6382E-01  0.6294E-01  0.1539E+00  0.1538E+00
     -2.007  0.2186E+00  0.2158E+00  0.1705E+00  0.1702E+00
     -1.932  0.4881E+00  0.4858E+00  0.2074E+00  0.2069E+00
     -1.856  0.4488E+00  0.4516E+00  0.2413E+00  0.2410E+00
     -1.781  0.1796E+00  0.1820E+00  0.2549E+00  0.2548E+00
     -1.705  0.5390E-01  0.5454E-01  0.2590E+00  0.2589E+00
     -1.629  0.4393E-01  0.4356E-01  0.2623E+00  0.2622E+00
     -1.554  0.1400E+00  0.1379E+00  0.2728E+00  0.2726E+00
     -1.478  0.4368E+00  0.4324E+00  0.3059E+00  0.3054E+00
     -1.403  0.7076E+00  0.7075E+00  0.3594E+00  0.3588E+00
     -1.327  0.4493E+00  0.4537E+00  0.3933E+00  0.3931E+00
     -1.252  0.1477E+00  0.1498E+00  0.4045E+00  0.4044E+00
     -1.176  0.5584E-01  0.5607E-01  0.4087E+00  0.4087E+00
     -1.101  0.9986E-01  0.9851E-01  0.4162E+00  0.4161E+00
     -1.025  0.3533E+00  0.3485E+00  0.4431E+00  0.4426E+00
     -0.949  0.8937E+00  0.8879E+00  0.5106E+00  0.5097E+00
     -0.874  0.9788E+00  0.9831E+00  0.5846E+00  0.5840E+00
     -0.798  0.4411E+00  0.4467E+00  0.6179E+00  0.6177E+00
     -0.723  0.1249E+00  0.1267E+00  0.6274E+00  0.6273E+00
     -0.647  0.4836E-01  0.4850E-01  0.6310E+00  0.6310E+00
     -0.572  0.9202E-01  0.9081E-01  0.6380E+00  0.6378E+00
     -0.496  0.2881E+00  0.2849E+00  0.6599E+00  0.6595E+00
     -0.421  0.5248E+00  0.5239E+00  0.6995E+00  0.6991E+00
     -0.345  0.3772E+00  0.3805E+00  0.7280E+00  0.7278E+00
     -0.269  0.1325E+00  0.1343E+00  0.7380E+00  0.7380E+00
     -0.194  0.5037E-01  0.5059E-01  0.7418E+00  0.7418E+00
     -0.118  0.8849E-01  0.8731E-01  0.7485E+00  0.7484E+00
     -0.043  0.3180E+00  0.3136E+00  0.7727E+00  0.7723E+00
      0.033  0.8484E+00  0.8423E+00  0.8368E+00  0.8359E+00
      0.108  0.1010E+01  0.1013E+01  0.9131E+00  0.9124E+00
      0.184  0.4868E+00  0.4926E+00  0.9499E+00  0.9497E+00
      0.260  0.1488E+00  0.1507E+00  0.9611E+00  0.9611E+00
      0.335  0.8952E-01  0.8911E-01  0.9679E+00  0.9678E+00
      0.411  0.2508E+00  0.2473E+00  0.9868E+00  0.9865E+00
      0.486  0.8309E+00  0.8217E+00  0.1050E+01  0.1049E+01
      0.562  0.1563E+01  0.1560E+01  0.1168E+01  0.1167E+01
      0.637  0.1164E+01  0.1174E+01  0.1256E+01  0.1255E+01
      0.713  0.4073E+00  0.4130E+00  0.1287E+01  0.1286E+01
      0.788  0.1104E+00  0.1119E+00  0.1295E+01  0.1295E+01
      0.864  0.6381E-01  0.6356E-01  0.1300E+01  0.1300E+01
      0.940  0.1597E+00  0.1593E+00  0.1312E+01  0.1312E+01
      1.015  0.4252E+00  0.4222E+00  0.1344E+01  0.1344E+01
      1.091  0.5045E+00  0.5062E+00  0.1383E+01  0.1382E+01
      1.166  0.2434E+00  0.2462E+00  0.1401E+01  0.1401E+01
      1.242  0.7834E-01  0.7921E-01  0.1407E+01  0.1407E+01
      1.317  0.6391E-01  0.6340E-01  0.1412E+01  0.1412E+01
      1.393  0.2056E+00  0.2027E+00  0.1427E+01  0.1427E+01
      1.468  0.6769E+00  0.6696E+00  0.1479E+01  0.1478E+01
      1.544  0.1226E+01  0.1224E+01  0.1571E+01  0.1570E+01
      1.620  0.8750E+00  0.8824E+00  0.1637E+01  0.1637E+01
      1.695  0.3043E+00  0.3084E+00  0.1660E+01  0.1660E+01
      1.771  0.1069E+00  0.1076E+00  0.1668E+01  0.1668E+01
      1.846  0.1621E+00  0.1602E+00  0.1681E+01  0.1680E+01
      1.922  0.5534E+00  0.5464E+00  0.1723E+01  0.1722E+01
      1.997  0.1366E+01  0.1358E+01  0.1826E+01  0.1825E+01
      2.073  0.1447E+01  0.1453E+01  0.1935E+01  0.1934E+01
      2.149  0.6376E+00  0.6452E+00  0.1983E+01  0.1983E+01
      2.224  0.1849E+00  0.1873E+00  0.1997E+01  0.1997E+01
      2.300  0.9733E-01  0.9712E-01  0.2005E+01  0.2005E+01
      2.375  0.2433E+00  0.2404E+00  0.2023E+01  0.2023E+01
      2.451  0.7118E+00  0.7059E+00  0.2077E+01  0.2076E+01
      2.526  0.1058E+01  0.1059E+01  0.2157E+01  0.2156E+01
      2.602  0.6183E+00  0.6242E+00  0.2204E+01  0.2204E+01
      2.677  0.1987E+00  0.2011E+00  0.2219E+01  0.2219E+01
      2.753  0.9039E-01  0.9038E-01  0.2226E+01  0.2226E+01
      2.829  0.2037E+00  0.2011E+00  0.2241E+01  0.2241E+01
      2.904  0.6974E+00  0.6895E+00  0.2294E+01  0.2293E+01
      2.980  0.1494E+01  0.1489E+01  0.2407E+01  0.2406E+01
      3.055  0.1303E+01  0.1312E+01  0.2505E+01  0.2505E+01
      3.131  0.5057E+00  0.5120E+00  0.2544E+01  0.2543E+01
      3.206  0.1561E+00  0.1576E+00  0.2555E+01  0.2555E+01
      3.282  0.1491E+00  0.1479E+00  0.2567E+01  0.2566E+01
      3.357  0.4759E+00  0.4702E+00  0.2603E+01  0.2602E+01
      3.433  0.1262E+01  0.1254E+01  0.2698E+01  0.2697E+01
      3.509  0.1520E+01  0.1524E+01  0.2813E+01  0.2812E+01
      3.584  0.7390E+00  0.7469E+00  0.2869E+01  0.2868E+01
      3.660  0.2196E+00  0.2224E+00  0.2885E+01  0.2885E+01
      3.735  0.1021E+00  0.1021E+00  0.2893E+01  0.2893E+01
      3.811  0.2307E+00  0.2281E+00  0.2910E+01  0.2910E+01
      3.886  0.6833E+00  0.6777E+00  0.2962E+01  0.2962E+01
      3.962  0.1061E+01  0.1062E+01  0.3043E+01  0.3042E+01
      4.038  0.6478E+00  0.6534E+00  0.3091E+01  0.3091E+01
      4.113  0.2164E+00  0.2189E+00  0.3108E+01  0.3108E+01
      4.189  0.1140E+00  0.1141E+00  0.3116E+01  0.3116E+01
      4.264  0.2591E+00  0.2574E+00  0.3136E+01  0.3136E+01
      4.340  0.6323E+00  0.6291E+00  0.3184E+01  0.3184E+01
      4.415  0.8718E+00  0.8699E+00  0.3250E+01  0.3249E+01
      4.491  0.7016E+00  0.7042E+00  0.3303E+01  0.3303E+01
      4.566  0.3254E+00  0.3286E+00  0.3328E+01  0.3327E+01
      4.642  0.1895E+00  0.1897E+00  0.3342E+01  0.3342E+01
      4.718  0.4501E+00  0.4468E+00  0.3376E+01  0.3375E+01
      4.793  0.1312E+01  0.1304E+01  0.3475E+01  0.3474E+01
      4.869  0.2263E+01  0.2257E+01  0.3646E+01  0.3645E+01
      4.944  0.1998E+01  0.2005E+01  0.3797E+01  0.3796E+01
      5.020  0.8999E+00  0.9085E+00  0.3865E+01  0.3865E+01
      5.095  0.2880E+00  0.2909E+00  0.3887E+01  0.3887E+01
      5.171  0.2159E+00  0.2154E+00  0.3903E+01  0.3903E+01
      5.246  0.5242E+00  0.5208E+00  0.3943E+01  0.3943E+01
      5.322  0.1039E+01  0.1034E+01  0.4022E+01  0.4021E+01
      5.398  0.1324E+01  0.1323E+01  0.4122E+01  0.4121E+01
      5.473  0.9192E+00  0.9255E+00  0.4191E+01  0.4191E+01
      5.549  0.3634E+00  0.3671E+00  0.4219E+01  0.4219E+01
      5.624  0.2647E+00  0.2646E+00  0.4239E+01  0.4239E+01
      5.700  0.6310E+00  0.6283E+00  0.4286E+01  0.4286E+01
      5.775  0.1117E+01  0.1115E+01  0.4371E+01  0.4370E+01
      5.851  0.8784E+00  0.8803E+00  0.4437E+01  0.4437E+01
      5.927  0.4128E+00  0.4149E+00  0.4468E+01  0.4468E+01
      6.002  0.1570E+00  0.1581E+00  0.4480E+01  0.4480E+01
      6.078  0.1326E+00  0.1321E+00  0.4490E+01  0.4490E+01
      6.153  0.3974E+00  0.3945E+00  0.4521E+01  0.4520E+01
      6.229  0.1138E+01  0.1132E+01  0.4607E+01  0.4606E+01
      6.304  0.1805E+01  0.1801E+01  0.4743E+01  0.4742E+01
      6.380  0.1514E+01  0.1519E+01  0.4857E+01  0.4857E+01
      6.455  0.6683E+00  0.6747E+00  0.4908E+01  0.4908E+01
      6.531  0.1949E+00  0.1971E+00  0.4923E+01  0.4923E+01
      6.607  0.8558E-01  0.8566E-01  0.4929E+01  0.4929E+01
      6.682  0.1726E+00  0.1710E+00  0.4942E+01  0.4942E+01
      6.758  0.4328E+00  0.4305E+00  0.4975E+01  0.4975E+01
      6.833  0.5046E+00  0.5060E+00  0.5013E+01  0.5013E+01
      6.909  0.2557E+00  0.2577E+00  0.5033E+01  0.5033E+01
      6.984  0.1574E+00  0.1576E+00  0.5045E+01  0.5044E+01
      7.060  0.3921E+00  0.3899E+00  0.5074E+01  0.5074E+01
      7.135  0.1166E+01  0.1161E+01  0.5162E+01  0.5162E+01
      7.211  0.1888E+01  0.1886E+01  0.5305E+01  0.5304E+01
      7.287  0.1467E+01  0.1470E+01  0.5416E+01  0.5415E+01
      7.362  0.7138E+00  0.7162E+00  0.5470E+01  0.5469E+01
      7.438  0.4506E+00  0.4464E+00  0.5504E+01  0.5503E+01
      7.513  0.7094E+00  0.7041E+00  0.5557E+01  0.5556E+01
      7.589  0.1056E+01  0.1058E+01  0.5638E+01  0.5637E+01
      7.664  0.1416E+01  0.1417E+01  0.5745E+01  0.5744E+01
      7.740  0.1318E+01  0.1320E+01  0.5844E+01  0.5844E+01
      7.816  0.8870E+00  0.8872E+00  0.5911E+01  0.5911E+01
      7.891  0.7441E+00  0.7358E+00  0.5968E+01  0.5966E+01
      7.967  0.1080E+01  0.1073E+01  0.6049E+01  0.6047E+01
      8.042  0.9221E+00  0.9332E+00  0.6119E+01  0.6118E+01
      8.118  0.5087E+00  0.5157E+00  0.6158E+01  0.6157E+01
      8.193  0.5336E+00  0.5338E+00  0.6198E+01  0.6198E+01
      8.269  0.5224E+00  0.5245E+00  0.6237E+01  0.6237E+01
      8.344  0.2835E+00  0.2844E+00  0.6259E+01  0.6259E+01
      8.420  0.2992E+00  0.2947E+00  0.6282E+01  0.6281E+01
      8.496  0.7708E+00  0.7618E+00  0.6340E+01  0.6339E+01
      8.571  0.1403E+01  0.1404E+01  0.6446E+01  0.6445E+01
      8.647  0.1251E+01  0.1259E+01  0.6540E+01  0.6540E+01
      8.722  0.5674E+00  0.5711E+00  0.6583E+01  0.6583E+01
      8.798  0.3338E+00  0.3299E+00  0.6609E+01  0.6608E+01
      8.873  0.6774E+00  0.6651E+00  0.6660E+01  0.6658E+01
      8.949  0.1216E+01  0.1213E+01  0.6752E+01  0.6750E+01
      9.024  0.1251E+01  0.1260E+01  0.6846E+01  0.6845E+01
      9.100  0.1275E+01  0.1280E+01  0.6943E+01  0.6942E+01
      9.176  0.8743E+00  0.8792E+00  0.7009E+01  0.7008E+01
      9.251  0.3689E+00  0.3696E+00  0.7037E+01  0.7036E+01
      9.327  0.3680E+00  0.3612E+00  0.7065E+01  0.7064E+01
      9.402  0.1018E+01  0.1002E+01  0.7142E+01  0.7140E+01
      9.478  0.1994E+01  0.1990E+01  0.7292E+01  0.7290E+01
      9.553  0.1948E+01  0.1961E+01  0.7440E+01  0.7438E+01
      9.629  0.1216E+01  0.1224E+01  0.7531E+01  0.7531E+01
      9.705  0.5805E+00  0.5859E+00  0.7575E+01  0.7575E+01
      9.780  0.2001E+00  0.2022E+00  0.7590E+01  0.7590E+01
      9.856  0.1292E+00  0.1291E+00  0.7600E+01  0.7600E+01
      9.931  0.3018E+00  0.3004E+00  0.7623E+01  0.7623E+01
     10.007  0.5275E+00  0.5269E+00  0.7663E+01  0.7663E+01
     10.082  0.3759E+00  0.3775E+00  0.7692E+01  0.7692E+01
     10.158  0.1499E+00  0.1501E+00  0.7703E+01  0.7703E+01
     10.233  0.1404E+00  0.1378E+00  0.7714E+01  0.7713E+01
     10.309  0.4469E+00  0.4370E+00  0.7747E+01  0.7746E+01
     10.385  0.1330E+01  0.1310E+01  0.7848E+01  0.7846E+01
     10.460  0.2329E+01  0.2317E+01  0.8024E+01  0.8021E+01
     10.536  0.2041E+01  0.2055E+01  0.8178E+01  0.8176E+01
     10.611  0.1058E+01  0.1072E+01  0.8258E+01  0.8257E+01
     10.687  0.8877E+00  0.8834E+00  0.8325E+01  0.8324E+01
     10.762  0.1274E+01  0.1265E+01  0.8422E+01  0.8419E+01
     10.838  0.1312E+01  0.1318E+01  0.8521E+01  0.8519E+01
     10.913  0.6941E+00  0.7083E+00  0.8574E+01  0.8573E+01
     10.989  0.2558E+00  0.2606E+00  0.8593E+01  0.8593E+01
     11.065  0.2649E+00  0.2615E+00  0.8613E+01  0.8612E+01
     11.140  0.7091E+00  0.6987E+00  0.8667E+01  0.8665E+01
     11.216  0.1232E+01  0.1231E+01  0.8760E+01  0.8759E+01
     11.291  0.1123E+01  0.1133E+01  0.8845E+01  0.8844E+01
     11.367  0.7707E+00  0.7758E+00  0.8903E+01  0.8903E+01
     11.442  0.4442E+00  0.4448E+00  0.8937E+01  0.8936E+01
     11.518  0.3189E+00  0.3179E+00  0.8961E+01  0.8960E+01
     11.594  0.4008E+00  0.3944E+00  0.8991E+01  0.8990E+01
     11.669  0.9713E+00  0.9569E+00  0.9065E+01  0.9063E+01
     11.745  0.1981E+01  0.1967E+01  0.9214E+01  0.9211E+01
     11.820  0.2676E+01  0.2684E+01  0.9417E+01  0.9414E+01
     11.896  0.1892E+01  0.1910E+01  0.9560E+01  0.9559E+01
     11.971  0.7334E+00  0.7412E+00  0.9615E+01  0.9615E+01
     12.047  0.3229E+00  0.3203E+00  0.9639E+01  0.9639E+01
     12.122  0.6045E+00  0.5871E+00  0.9685E+01  0.9683E+01
     12.198  0.1596E+01  0.1567E+01  0.9806E+01  0.9802E+01
     12.274  0.2078E+01  0.2089E+01  0.9963E+01  0.9960E+01
     12.349  0.1106E+01  0.1133E+01  0.1005E+02  0.1005E+02
     12.425  0.4556E+00  0.4630E+00  0.1008E+02  0.1008E+02
     12.500  0.6110E+00  0.6025E+00  0.1013E+02  0.1013E+02
     12.576  0.1326E+01  0.1313E+01  0.1023E+02  0.1023E+02
     12.651  0.1856E+01  0.1849E+01  0.1037E+02  0.1037E+02
     12.727  0.1906E+01  0.1910E+01  0.1051E+02  0.1051E+02
     12.802  0.1099E+01  0.1118E+01  0.1060E+02  0.1059E+02
     12.878  0.3554E+00  0.3651E+00  0.1062E+02  0.1062E+02
     12.954  0.1136E+00  0.1153E+00  0.1063E+02  0.1063E+02
     13.029  0.1354E+00  0.1322E+00  0.1064E+02  0.1064E+02
     13.105  0.3569E+00  0.3496E+00  0.1067E+02  0.1067E+02
     13.180  0.5337E+00  0.5344E+00  0.1071E+02  0.1071E+02
     13.256  0.3300E+00  0.3366E+00  0.1073E+02  0.1073E+02
     13.331  0.1905E+00  0.1911E+00  0.1075E+02  0.1075E+02
     13.407  0.4097E+00  0.4013E+00  0.1078E+02  0.1078E+02
     13.483  0.1137E+01  0.1121E+01  0.1086E+02  0.1086E+02
     13.558  0.1582E+01  0.1586E+01  0.1098E+02  0.1098E+02
     13.634  0.9102E+00  0.9244E+00  0.1105E+02  0.1105E+02
     13.709  0.4261E+00  0.4284E+00  0.1109E+02  0.1108E+02
     13.785  0.4442E+00  0.4414E+00  0.1112E+02  0.1112E+02
     13.860  0.5063E+00  0.5035E+00  0.1116E+02  0.1116E+02
     13.936  0.8065E+00  0.7909E+00  0.1122E+02  0.1122E+02
     14.011  0.1389E+01  0.1376E+01  0.1132E+02  0.1132E+02
     14.087  0.1258E+01  0.1271E+01  0.1142E+02  0.1142E+02
     14.163  0.6009E+00  0.6197E+00  0.1146E+02  0.1146E+02
     14.238  0.1779E+00  0.1860E+00  0.1148E+02  0.1148E+02
     14.314  0.4253E-01  0.4467E-01  0.1148E+02  0.1148E+02
     14.389  0.7237E-02  0.7600E-02  0.1148E+02  0.1148E+02
     14.465  0.2283E-02  0.2215E-02  0.1148E+02  0.1148E+02
     14.540  0.1030E-01  0.9995E-02  0.1148E+02  0.1148E+02
     14.616  0.4586E-01  0.4452E-01  0.1149E+02  0.1149E+02
     14.691  0.1910E+00  0.1859E+00  0.1150E+02  0.1150E+02
     14.767  0.6221E+00  0.6104E+00  0.1155E+02  0.1155E+02
     14.843  0.1063E+01  0.1061E+01  0.1163E+02  0.1163E+02
     14.918  0.7255E+00  0.7368E+00  0.1168E+02  0.1168E+02
     14.994  0.3015E+00  0.3059E+00  0.1171E+02  0.1170E+02
     15.069  0.2168E+00  0.2169E+00  0.1172E+02  0.1172E+02
     15.145  0.1654E+00  0.1677E+00  0.1173E+02  0.1173E+02
     15.220  0.6211E-01  0.6385E-01  0.1174E+02  0.1174E+02
     15.296  0.1635E-01  0.1690E-01  0.1174E+02  0.1174E+02
     15.372  0.3761E-02  0.3894E-02  0.1174E+02  0.1174E+02
     15.447  0.8378E-03  0.8677E-03  0.1174E+02  0.1174E+02
     15.523  0.0000E+00  0.0000E+00  0.1174E+02  0.1174E+02
     15.598  0.0000E+00  0.0000E+00  0.1174E+02  0.1174E+02
     15.674  0.1543E-03  0.1454E-03  0.1174E+02  0.1174E+02
     15.749  0.5448E-03  0.5133E-03  0.1174E+02  0.1174E+02
     15.825  0.2464E-02  0.2322E-02  0.1174E+02  0.1174E+02
     15.900  0.1107E-01  0.1043E-01  0.1174E+02  0.1174E+02
     15.976  0.4813E-01  0.4547E-01  0.1175E+02  0.1175E+02
     16.052  0.1834E+00  0.1749E+00  0.1176E+02  0.1176E+02
     16.127  0.4546E+00  0.4448E+00  0.1179E+02  0.1179E+02
     16.203  0.4830E+00  0.4908E+00  0.1183E+02  0.1183E+02
     16.278  0.2124E+00  0.2221E+00  0.1185E+02  0.1185E+02
     16.354  0.5754E-01  0.6085E-01  0.1185E+02  0.1185E+02
     16.429  0.1334E-01  0.1415E-01  0.1185E+02  0.1185E+02
     16.505  0.2977E-02  0.3159E-02  0.1185E+02  0.1185E+02
     16.580  0.2278E-03  0.2179E-03  0.1185E+02  0.1185E+02
     16.656  0.8040E-03  0.7692E-03  0.1185E+02  0.1185E+02
     16.732  0.3633E-02  0.3476E-02  0.1185E+02  0.1185E+02
     16.807  0.1624E-01  0.1555E-01  0.1185E+02  0.1185E+02
     16.883  0.6932E-01  0.6653E-01  0.1186E+02  0.1186E+02
     16.958  0.2459E+00  0.2382E+00  0.1188E+02  0.1188E+02
     17.034  0.5067E+00  0.5020E+00  0.1192E+02  0.1191E+02
     17.109  0.4202E+00  0.4281E+00  0.1195E+02  0.1195E+02
     17.185  0.1561E+00  0.1619E+00  0.1196E+02  0.1196E+02
     17.261  0.3994E-01  0.4167E-01  0.1196E+02  0.1196E+02
     17.336  0.9621E-02  0.1001E-01  0.1196E+02  0.1196E+02
     17.412  0.4457E-02  0.4462E-02  0.1196E+02  0.1196E+02
     17.487  0.1075E-01  0.1038E-01  0.1196E+02  0.1196E+02
     17.563  0.4333E-01  0.4198E-01  0.1197E+02  0.1197E+02
     17.638  0.1264E+00  0.1240E+00  0.1198E+02  0.1198E+02
     17.714  0.1746E+00  0.1752E+00  0.1199E+02  0.1199E+02
     17.789  0.9512E-01  0.9743E-01  0.1200E+02  0.1200E+02
     17.865  0.2821E-01  0.2917E-01  0.1200E+02  0.1200E+02
     17.941  0.6705E-02  0.6951E-02  0.1200E+02  0.1200E+02
     18.016  0.1505E-02  0.1561E-02  0.1200E+02  0.1200E+02
     18.092  0.0000E+00  0.0000E+00  0.1200E+02  0.1200E+02
     18.167  0.0000E+00  0.0000E+00  0.1200E+02  0.1200E+02
     18.243  0.0000E+00  0.0000E+00  0.1200E+02  0.1200E+02
     18.318  0.0000E+00  0.0000E+00  0.1200E+02  0.1200E+02
     18.394  0.0000E+00  0.0000E+00  0.1200E+02  0.1200E+02
     18.469  0.0000E+00  0.0000E+00  0.1200E+02  0.1200E+02
     18.545  0.0000E+00  0.0000E+00  0.1200E+02  0.1200E+02
     18.621  0.0000E+00  0.0000E+00  0.1200E+02  0.1200E+02
     18.696  0.0000E+00  0.0000E+00  0.1200E+02  0.1200E+02
     18.69614174     -3.97184732  301      7.92448980      1.00000000
     -3.972  0.0000E+00  0.0000E+00  0.0000E+00  0.0000E+00  0.0000E+00  0.0000E+00  0.0000E+00  0.0000E+00  0.0000E+00  0.0000E+00  0.0000E+00  0.0000E+00  0.0000E+00  0.0000E+00  0.0000E+00  0.0000E+00  0.0000E+00  0.0000E+00
     -3.896  0.0000E+00  0.0000E+00  0.0000E+00  0.0000E+00  0.0000E+00  0.0000E+00  0.0000E+00  0.0000E+00  0.0000E+00  0.0000E+00  0.0000E+00  0.0000E+00  0.0000E+00  0.0000E+00  0.0000E+00  0.0000E+00  0.0000E+00  0.0000E+00
     -3.821  0.0000E+00  0.0000E+00  0.0000E+00  0.0000E+00  0.0000E+00  0.0000E+00  0.0000E+00  0.0000E+00  0.0000E+00  0.0000E+00  0.0000E+00  0.0000E+00  0.0000E+00  0.0000E+00  0.0000E+00  0.0000E+00  0.0000E+00  0.0000E+00
     -3.745  0.0000E+00  0.0000E+00  0.0000E+00  0.0000E+00  0.0000E+00  0.0000E+00  0.0000E+00  0.0000E+00  0.0000E+00  0.0000E+00  0.0000E+00  0.0000E+00  0.0000E+00  0.0000E+00  0.0000E+00  0.0000E+00  0.0000E+00  0.0000E+00
     -3.670  0.0000E+00  0.0000E+00  0.0000E+00  0.0000E+00  0.0000E+00  0.0000E+00  0.0000E+00  0.0000E+00  0.0000E+00  0.0000E+00  0.0000E+00  0.0000E+00  0.0000E+00  0.0000E+00  0.0000E+00  0.0000E+00  0.0000E+00  0.0000E+00
     -3.594  0.0000E+00  0.0000E+00  0.0000E+00  0.0000E+00  0.0000E+00  0.0000E+00  0.0000E+00  0.0000E+00  0.0000E+00  0.0000E+00  0.0000E+00  0.0000E+00  0.0000E+00  0.0000E+00  0.0000E+00  0.0000E+00  0.0000E+00  0.0000E+00
     -3.518  0.0000E+00  0.0000E+00  0.0000E+00  0.0000E+00  0.0000E+00  0.0000E+00  0.0000E+00  0.0000E+00  0.0000E+00  0.0000E+00  0.0000E+00  0.0000E+00  0.0000E+00  0.0000E+00  0.0000E+00  0.0000E+00  0.0000E+00  0.0000E+00
     -3.443  0.0000E+00  0.0000E+00  0.0000E+00  0.0000E+00  0.0000E+00  0.0000E+00  0.0000E+00  0.0000E+00  0.0000E+00  0.0000E+00  0.0000E+00  0.0000E+00  0.0000E+00  0.0000E+00  0.0000E+00  0.0000E+00  0.0000E+00  0.0000E+00
     -3.367  0.6534E-05  0.6416E-05  0.3140E-07  0.3085E-07  0.3140E-07  0.3085E-07  0.3140E-07  0.3085E-07  0.0000E+00  0.0000E+00  0.0000E+00  0.0000E+00  0.0000E+00  0.0000E+00  0.0000E+00  0.0000E+00  0.0000E+00  0.0000E+00
     -3.292  0.2306E-04  0.2264E-04  0.1108E-06  0.1089E-06  0.1108E-06  0.1089E-06  0.1108E-06  0.1089E-06  0.0000E+00  0.0000E+00  0.0000E+00  0.0000E+00  0.0000E+00  0.0000E+00  0.0000E+00  0.0000E+00  0.0000E+00  0.0000E+00
     -3.216  0.1041E-03  0.1022E-03  0.5003E-06  0.4915E-06  0.5003E-06  0.4915E-06  0.5003E-06  0.4915E-06  0.0000E+00  0.0000E+00  0.0000E+00  0.0000E+00  0.0000E+00  0.0000E+00  0.0000E+00  0.0000E+00  0.0000E+00  0.0000E+00
     -3.141  0.4636E-03  0.4554E-03  0.2228E-05  0.2190E-05  0.2228E-05  0.2190E-05  0.2228E-05  0.2190E-05  0.0000E+00  0.0000E+00  0.0000E+00  0.0000E+00  0.0000E+00  0.0000E+00  0.0000E+00  0.0000E+00  0.0000E+00  0.0000E+00
     -3.065  0.1946E-02  0.1914E-02  0.9350E-05  0.9201E-05  0.9350E-05  0.9201E-05  0.9350E-05  0.9201E-05  0.0000E+00  0.0000E+00  0.0000E+00  0.0000E+00  0.0000E+00  0.0000E+00  0.0000E+00  0.0000E+00  0.0000E+00  0.0000E+00
     -2.990  0.6498E-02  0.6419E-02  0.3123E-04  0.3087E-04  0.3123E-04  0.3087E-04  0.3123E-04  0.3087E-04  0.0000E+00  0.0000E+00  0.0000E+00  0.0000E+00  0.0000E+00  0.0000E+00  0.0000E+00  0.0000E+00  0.0000E+00  0.0000E+00
     -2.914  0.1169E-01  0.1166E-01  0.5629E-04  0.5605E-04  0.5629E-04  0.5605E-04  0.5629E-04  0.5605E-04  0.0000E+00  0.0000E+00  0.0000E+00  0.0000E+00  0.0000E+00  0.0000E+00  0.0000E+00  0.0000E+00  0.0000E+00  0.0000E+00
     -2.838  0.8296E-02  0.8370E-02  0.4020E-04  0.4066E-04  0.4020E-04  0.4066E-04  0.4020E-04  0.4066E-04  0.0000E+00  0.0000E+00  0.0000E+00  0.0000E+00  0.0000E+00  0.0000E+00  0.0000E+00  0.0000E+00  0.0000E+00  0.0000E+00
     -2.763  0.2913E-02  0.2950E-02  0.1550E-04  0.1566E-04  0.1550E-04  0.1566E-04  0.1550E-04  0.1566E-04  0.0000E+00  0.0000E+00  0.0000E+00  0.0000E+00  0.0000E+00  0.0000E+00  0.0000E+00  0.0000E+00  0.0000E+00  0.0000E+00
     -2.687  0.1201E-02  0.1203E-02  0.1253E-04  0.1242E-04  0.1253E-04  0.1242E-04  0.1253E-04  0.1242E-04  0.0000E+00  0.0000E+00  0.0000E+00  0.0000E+00  0.0000E+00  0.0000E+00  0.0000E+00  0.0000E+00  0.0000E+00  0.0000E+00
     -2.612  0.2395E-02  0.2358E-02  0.4123E-04  0.4056E-04  0.4123E-04  0.4056E-04  0.4123E-04  0.4056E-04  0.0000E+00  0.0000E+00  0.0000E+00  0.0000E+00  0.0000E+00  0.0000E+00  0.0000E+00  0.0000E+00  0.0000E+00  0.0000E+00
     -2.536  0.8935E-02  0.8797E-02  0.1616E-03  0.1592E-03  0.1616E-03  0.1592E-03  0.1616E-03  0.1592E-03  0.0000E+00  0.0000E+00  0.0000E+00  0.0000E+00  0.0000E+00  0.0000E+00  0.0000E+00  0.0000E+00  0.0000E+00  0.0000E+00
     -2.461  0.2533E-01  0.2510E-01  0.4582E-03  0.4542E-03  0.4582E-03  0.4542E-03  0.4582E-03  0.4542E-03  0.0000E+00  0.0000E+00  0.0000E+00  0.0000E+00  0.0000E+00  0.0000E+00  0.0000E+00  0.0000E+00  0.0000E+00  0.0000E+00
     -2.385  0.3331E-01  0.3336E-01  0.6026E-03  0.6038E-03  0.6026E-03  0.6038E-03  0.6026E-03  0.6038E-03  0.0000E+00  0.0000E+00  0.0000E+00  0.0000E+00  0.0000E+00  0.0000E+00  0.0000E+00  0.0000E+00  0.0000E+00  0.0000E+00
     -2.310  0.1741E-01  0.1759E-01  0.3154E-03  0.3189E-03  0.3154E-03  0.3189E-03  0.3154E-03  0.3189E-03  0.0000E+00  0.0000E+00  0.0000E+00  0.0000E+00  0.0000E+00  0.0000E+00  0.0000E+00  0.0000E+00  0.0000E+00  0.0000E+00
     -2.234  0.5241E-02  0.5313E-02  0.9744E-04  0.9875E-04  0.9744E-04  0.9875E-04  0.9744E-04  0.9875E-04  0.0000E+00  0.0000E+00  0.0000E+00  0.0000E+00  0.0000E+00  0.0000E+00  0.0000E+00  0.0000E+00  0.0000E+00  0.0000E+00
     -2.158  0.2049E-02  0.2053E-02  0.4893E-04  0.4882E-04  0.4893E-04  0.4882E-04  0.4893E-04  0.4882E-04  0.0000E+00  0.0000E+00  0.0000E+00  0.0000E+00  0.0000E+00  0.0000E+00  0.0000E+00  0.0000E+00  0.0000E+00  0.0000E+00
     -2.083  0.3951E-02  0.3893E-02  0.1225E-03  0.1207E-03  0.1225E-03  0.1207E-03  0.1225E-03  0.1207E-03  0.0000E+00  0.0000E+00  0.0000E+00  0.0000E+00  0.0000E+00  0.0000E+00  0.0000E+00  0.0000E+00  0.0000E+00  0.0000E+00
     -2.007  0.1350E-01  0.1331E-01  0.4313E-03  0.4256E-03  0.4313E-03  0.4256E-03  0.4313E-03  0.4256E-03  0.0000E+00  0.0000E+00  0.0000E+00  0.0000E+00  0.0000E+00  0.0000E+00  0.0000E+00  0.0000E+00  0.0000E+00  0.0000E+00
     -1.932  0.3014E-01  0.2997E-01  0.9631E-03  0.9582E-03  0.9631E-03  0.9582E-03  0.9631E-03  0.9582E-03  0.0000E+00  0.0000E+00  0.0000E+00  0.0000E+00  0.0000E+00  0.0000E+00  0.0000E+00  0.0000E+00  0.0000E+00  0.0000E+00
     -1.856  0.2771E-01  0.2786E-01  0.8859E-03  0.8912E-03  0.8859E-03  0.8912E-03  0.8859E-03  0.8912E-03  0.0000E+00  0.0000E+00  0.0000E+00  0.0000E+00  0.0000E+00  0.0000E+00  0.0000E+00  0.0000E+00  0.0000E+00  0.0000E+00
     -1.781  0.1109E-01  0.1122E-01  0.3557E-03  0.3603E-03  0.3557E-03  0.3603E-03  0.3557E-03  0.3603E-03  0.0000E+00  0.0000E+00  0.0000E+00  0.0000E+00  0.0000E+00  0.0000E+00  0.0000E+00  0.0000E+00  0.0000E+00  0.0000E+00
     -1.705  0.3310E-02  0.3346E-02  0.1124E-03  0.1135E-03  0.1124E-03  0.1135E-03  0.1124E-03  0.1135E-03  0.0000E+00  0.0000E+00  0.0000E+00  0.0000E+00  0.0000E+00  0.0000E+00  0.0000E+00  0.0000E+00  0.0000E+00  0.0000E+00
     -1.629  0.2630E-02  0.2606E-02  0.1136E-03  0.1124E-03  0.1136E-03  0.1124E-03  0.1136E-03  0.1124E-03  0.0000E+00  0.0000E+00  0.0000E+00  0.0000E+00  0.0000E+00  0.0000E+00  0.0000E+00  0.0000E+00  0.0000E+00  0.0000E+00
     -1.554  0.8302E-02  0.8173E-02  0.3874E-03  0.3816E-03  0.3874E-03  0.3816E-03  0.3874E-03  0.3816E-03  0.0000E+00  0.0000E+00  0.0000E+00  0.0000E+00  0.0000E+00  0.0000E+00  0.0000E+00  0.0000E+00  0.0000E+00  0.0000E+00
     -1.478  0.2589E-01  0.2560E-01  0.1215E-02  0.1202E-02  0.1215E-02  0.1202E-02  0.1215E-02  0.1202E-02  0.0000E+00  0.0000E+00  0.0000E+00  0.0000E+00  0.0000E+00  0.0000E+00  0.0000E+00  0.0000E+00  0.0000E+00  0.0000E+00
     -1.403  0.4194E-01  0.4189E-01  0.1969E-02  0.1967E-02  0.1969E-02  0.1967E-02  0.1969E-02  0.1967E-02  0.0000E+00  0.0000E+00  0.0000E+00  0.0000E+00  0.0000E+00  0.0000E+00  0.0000E+00  0.0000E+00  0.0000E+00  0.0000E+00
     -1.327  0.2663E-01  0.2686E-01  0.1250E-02  0.1262E-02  0.1250E-02  0.1262E-02  0.1250E-02  0.1262E-02  0.0000E+00  0.0000E+00  0.0000E+00  0.0000E+00  0.0000E+00  0.0000E+00  0.0000E+00  0.0000E+00  0.0000E+00  0.0000E+00
     -1.252  0.8745E-02  0.8861E-02  0.4146E-03  0.4202E-03  0.4146E-03  0.4202E-03  0.4146E-03  0.4202E-03  0.0000E+00  0.0000E+00  0.0000E+00  0.0000E+00  0.0000E+00  0.0000E+00  0.0000E+00  0.0000E+00  0.0000E+00  0.0000E+00
     -1.176  0.3259E-02  0.3271E-02  0.1715E-03  0.1718E-03  0.1715E-03  0.1718E-03  0.1715E-03  0.1718E-03  0.0000E+00  0.0000E+00  0.0000E+00  0.0000E+00  0.0000E+00  0.0000E+00  0.0000E+00  0.0000E+00  0.0000E+00  0.0000E+00
     -1.101  0.5699E-02  0.5616E-02  0.3483E-03  0.3432E-03  0.3483E-03  0.3432E-03  0.3483E-03  0.3432E-03  0.0000E+00  0.0000E+00  0.0000E+00  0.0000E+00  0.0000E+00  0.0000E+00  0.0000E+00  0.0000E+00  0.0000E+00  0.0000E+00
     -1.025  0.2010E-01  0.1980E-01  0.1253E-02  0.1236E-02  0.1253E-02  0.1236E-02  0.1253E-02  0.1236E-02  0.0000E+00  0.0000E+00  0.0000E+00  0.0000E+00  0.0000E+00  0.0000E+00  0.0000E+00  0.0000E+00  0.0000E+00  0.0000E+00
     -0.949  0.5083E-01  0.5045E-01  0.3170E-02  0.3149E-02  0.3170E-02  0.3149E-02  0.3170E-02  0.3149E-02  0.0000E+00  0.0000E+00  0.0000E+00  0.0000E+00  0.0000E+00  0.0000E+00  0.0000E+00  0.0000E+00  0.0000E+00  0.0000E+00
     -0.874  0.5567E-01  0.5586E-01  0.3472E-02  0.3486E-02  0.3472E-02  0.3486E-02  0.3472E-02  0.3486E-02  0.0000E+00  0.0000E+00  0.0000E+00  0.0000E+00  0.0000E+00  0.0000E+00  0.0000E+00  0.0000E+00  0.0000E+00  0.0000E+00
     -0.798  0.2509E-01  0.2538E-01  0.1565E-02  0.1585E-02  0.1565E-02  0.1585E-02  0.1565E-02  0.1585E-02  0.0000E+00  0.0000E+00  0.0000E+00  0.0000E+00  0.0000E+00  0.0000E+00  0.0000E+00  0.0000E+00  0.0000E+00  0.0000E+00
     -0.723  0.7092E-02  0.7191E-02  0.4464E-03  0.4527E-03  0.4464E-03  0.4527E-03  0.4464E-03  0.4527E-03  0.0000E+00  0.0000E+00  0.0000E+00  0.0000E+00  0.0000E+00  0.0000E+00  0.0000E+00  0.0000E+00  0.0000E+00  0.0000E+00
     -0.647  0.2703E-02  0.2709E-02  0.1865E-03  0.1866E-03  0.1865E-03  0.1866E-03  0.1865E-03  0.1866E-03  0.0000E+00  0.0000E+00  0.0000E+00  0.0000E+00  0.0000E+00  0.0000E+00  0.0000E+00  0.0000E+00  0.0000E+00  0.0000E+00
     -0.572  0.5034E-02  0.4963E-02  0.3890E-03  0.3836E-03  0.3890E-03  0.3836E-03  0.3890E-03  0.3836E-03  0.0000E+00  0.0000E+00  0.0000E+00  0.0000E+00  0.0000E+00  0.0000E+00  0.0000E+00  0.0000E+00  0.0000E+00  0.0000E+00
     -0.496  0.1572E-01  0.1553E-01  0.1232E-02  0.1218E-02  0.1232E-02  0.1218E-02  0.1232E-02  0.1218E-02  0.0000E+00  0.0000E+00  0.0000E+00  0.0000E+00  0.0000E+00  0.0000E+00  0.0000E+00  0.0000E+00  0.0000E+00  0.0000E+00
     -0.421  0.2863E-01  0.2855E-01  0.2245E-02  0.2240E-02  0.2245E-02  0.2240E-02  0.2245E-02  0.2240E-02  0.0000E+00  0.0000E+00  0.0000E+00  0.0000E+00  0.0000E+00  0.0000E+00  0.0000E+00  0.0000E+00  0.0000E+00  0.0000E+00
     -0.345  0.2058E-01  0.2073E-01  0.1614E-02  0.1627E-02  0.1614E-02  0.1627E-02  0.1614E-02  0.1627E-02  0.0000E+00  0.0000E+00  0.0000E+00  0.0000E+00  0.0000E+00  0.0000E+00  0.0000E+00  0.0000E+00  0.0000E+00  0.0000E+00
     -0.269  0.7216E-02  0.7307E-02  0.5699E-03  0.5774E-03  0.5699E-03  0.5774E-03  0.5699E-03  0.5774E-03  0.0000E+00  0.0000E+00  0.0000E+00  0.0000E+00  0.0000E+00  0.0000E+00  0.0000E+00  0.0000E+00  0.0000E+00  0.0000E+00
     -0.194  0.2700E-02  0.2710E-02  0.2302E-03  0.2308E-03  0.2302E-03  0.2308E-03  0.2302E-03  0.2308E-03  0.0000E+00  0.0000E+00  0.0000E+00  0.0000E+00  0.0000E+00  0.0000E+00  0.0000E+00  0.0000E+00  0.0000E+00  0.0000E+00