   4   4   1   0
  0.1599154E+02  0.3999295E-09  0.3999295E-09  0.3999295E-09  0.5000000E-15
  1.000000000000000E-004
  CAR 
 unknown system                          
     19.23884494     -3.88025288  301      8.23666515      1.00000000
     -3.880  0.0000E+00  0.0000E+00  0.0000E+00  0.0000E+00
     -3.803  0.0000E+00  0.0000E+00  0.0000E+00  0.0000E+00
     -3.726  0.0000E+00  0.0000E+00  0.0000E+00  0.0000E+00
     -3.649  0.0000E+00  0.0000E+00  0.0000E+00  0.0000E+00
     -3.572  0.0000E+00  0.0000E+00  0.0000E+00  0.0000E+00
     -3.495  0.0000E+00  0.0000E+00  0.0000E+00  0.0000E+00
     -3.418  0.0000E+00  0.0000E+00  0.0000E+00  0.0000E+00
     -3.341  0.0000E+00  0.0000E+00  0.0000E+00  0.0000E+00
     -3.264  0.8108E-04  0.7941E-04  0.6248E-05  0.6120E-05
     -3.187  0.2974E-03  0.2913E-03  0.2917E-04  0.2857E-04
     -3.110  0.1384E-02  0.1356E-02  0.1358E-03  0.1330E-03
     -3.033  0.6360E-02  0.6232E-02  0.6260E-03  0.6133E-03
     -2.955  0.2760E-01  0.2708E-01  0.2753E-02  0.2700E-02
     -2.878  0.9535E-01  0.9406E-01  0.1010E-01  0.9949E-02
     -2.801  0.1749E+00  0.1745E+00  0.2358E-01  0.2340E-01
     -2.724  0.1227E+00  0.1241E+00  0.3303E-01  0.3296E-01
     -2.647  0.4162E-01  0.4232E-01  0.3624E-01  0.3622E-01
     -2.570  0.1667E-01  0.1672E-01  0.3753E-01  0.3751E-01
     -2.493  0.3433E-01  0.3374E-01  0.4017E-01  0.4011E-01
     -2.416  0.1331E+00  0.1308E+00  0.5048E-01  0.5023E-01
     -2.339  0.3897E+00  0.3858E+00  0.8051E-01  0.7996E-01
     -2.262  0.5176E+00  0.5190E+00  0.1204E+00  0.1200E+00
     -2.185  0.2649E+00  0.2686E+00  0.1408E+00  0.1407E+00
     -2.108  0.7702E-01  0.7839E-01  0.1467E+00  0.1467E+00
     -2.031  0.2955E-01  0.2964E-01  0.1490E+00  0.1490E+00
     -1.954  0.5955E-01  0.5856E-01  0.1536E+00  0.1535E+00
     -1.877  0.2119E+00  0.2086E+00  0.1700E+00  0.1697E+00
     -1.800  0.4857E+00  0.4830E+00  0.2074E+00  0.2069E+00
     -1.722  0.4455E+00  0.4489E+00  0.2418E+00  0.2415E+00
     -1.645  0.1731E+00  0.1760E+00  0.2551E+00  0.2550E+00
     -1.568  0.4995E-01  0.5067E-01  0.2590E+00  0.2589E+00
     -1.491  0.4024E-01  0.3983E-01  0.2621E+00  0.2620E+00
     -1.414  0.1330E+00  0.1307E+00  0.2723E+00  0.2721E+00
     -1.337  0.4296E+00  0.4243E+00  0.3055E+00  0.3048E+00
     -1.260  0.7063E+00  0.7061E+00  0.3599E+00  0.3592E+00
     -1.183  0.4410E+00  0.4463E+00  0.3939E+00  0.3936E+00
     -1.106  0.1399E+00  0.1423E+00  0.4047E+00  0.4046E+00
     -1.029  0.5103E-01  0.5129E-01  0.4086E+00  0.4086E+00
     -0.952  0.9320E-01  0.9168E-01  0.4158E+00  0.4156E+00
     -0.875  0.3424E+00  0.3368E+00  0.4423E+00  0.4417E+00
     -0.798  0.8890E+00  0.8821E+00  0.5108E+00  0.5097E+00
     -0.721  0.9726E+00  0.9778E+00  0.5858E+00  0.5851E+00
     -0.644  0.4258E+00  0.4324E+00  0.6186E+00  0.6184E+00
     -0.567  0.1162E+00  0.1183E+00  0.6276E+00  0.6275E+00
     -0.489  0.4410E-01  0.4424E-01  0.6310E+00  0.6309E+00
     -0.412  0.8750E-01  0.8611E-01  0.6377E+00  0.6375E+00
     -0.335  0.2842E+00  0.2804E+00  0.6597E+00  0.6593E+00
     -0.258  0.5243E+00  0.5232E+00  0.7001E+00  0.6996E+00
     -0.181  0.3697E+00  0.3736E+00  0.7286E+00  0.7284E+00
     -0.104  0.1250E+00  0.1271E+00  0.7382E+00  0.7382E+00
     -0.027  0.4608E-01  0.4632E-01  0.7418E+00  0.7417E+00
      0.050  0.8344E-01  0.8210E-01  0.7482E+00  0.7481E+00
      0.127  0.3111E+00  0.3060E+00  0.7723E+00  0.7718E+00
      0.204  0.8482E+00  0.8410E+00  0.8377E+00  0.8366E+00
      0.281  0.1001E+01  0.1006E+01  0.9149E+00  0.9141E+00
      0.358  0.4661E+00  0.4729E+00  0.9508E+00  0.9505E+00
      0.435  0.1370E+00  0.1391E+00  0.9613E+00  0.9613E+00
      0.512  0.8274E-01  0.8225E-01  0.9677E+00  0.9676E+00
      0.589  0.2432E+00  0.2390E+00  0.9865E+00  0.9860E+00
      0.667  0.8297E+00  0.8186E+00  0.1051E+01  0.1049E+01
      0.744  0.1566E+01  0.1562E+01  0.1171E+01  0.1170E+01
      0.821  0.1131E+01  0.1142E+01  0.1258E+01  0.1258E+01
      0.898  0.3790E+00  0.3855E+00  0.1288E+01  0.1287E+01
      0.975  0.9939E-01  0.1010E+00  0.1295E+01  0.1295E+01
      1.052  0.5956E-01  0.5921E-01  0.1300E+01  0.1300E+01
      1.129  0.1594E+00  0.1568E+00  0.1312E+01  0.1312E+01
      1.206  0.4294E+00  0.4259E+00  0.1346E+01  0.1345E+01
      1.283  0.4976E+00  0.4998E+00  0.1384E+01  0.1384E+01
      1.360  0.2290E+00  0.2323E+00  0.1402E+01  0.1401E+01
      1.437  0.7103E-01  0.7197E-01  0.1407E+01  0.1407E+01
      1.514  0.6046E-01  0.5984E-01  0.1412E+01  0.1412E+01
      1.591  0.2050E+00  0.2015E+00  0.1428E+01  0.1427E+01
      1.668  0.6891E+00  0.6804E+00  0.1481E+01  0.1480E+01
      1.745  0.1229E+01  0.1227E+01  0.1575E+01  0.1574E+01
      1.822  0.8354E+00  0.8443E+00  0.1640E+01  0.1639E+01
      1.900  0.2760E+00  0.2805E+00  0.1661E+01  0.1661E+01
      1.977  0.9669E-01  0.9730E-01  0.1669E+01  0.1668E+01
      2.054  0.1606E+00  0.1583E+00  0.1681E+01  0.1681E+01
      2.131  0.5699E+00  0.5614E+00  0.1725E+01  0.1724E+01
      2.208  0.1395E+01  0.1387E+01  0.1833E+01  0.1831E+01
      2.285  0.1404E+01  0.1412E+01  0.1941E+01  0.1940E+01
      2.362  0.5802E+00  0.5888E+00  0.1986E+01  0.1985E+01
      2.439  0.1618E+00  0.1643E+00  0.1998E+01  0.1998E+01
      2.516  0.9171E-01  0.9132E-01  0.2005E+01  0.2005E+01
      2.593  0.2512E+00  0.2475E+00  0.2024E+01  0.2024E+01
      2.670  0.7403E+00  0.7332E+00  0.2082E+01  0.2081E+01
      2.747  0.1048E+01  0.1050E+01  0.2162E+01  0.2162E+01
      2.824  0.5682E+00  0.5750E+00  0.2206E+01  0.2206E+01
      2.901  0.1734E+00  0.1760E+00  0.2220E+01  0.2219E+01
      2.978  0.8509E-01  0.8491E-01  0.2226E+01  0.2226E+01
      3.055  0.2170E+00  0.2136E+00  0.2243E+01  0.2242E+01
      3.133  0.7545E+00  0.7447E+00  0.2301E+01  0.2300E+01
      3.210  0.1534E+01  0.1529E+01  0.2419E+01  0.2418E+01
      3.287  0.1211E+01  0.1221E+01  0.2513E+01  0.2512E+01
      3.364  0.4313E+00  0.4379E+00  0.2546E+01  0.2546E+01
      3.441  0.1331E+00  0.1344E+00  0.2556E+01  0.2556E+01
      3.518  0.1545E+00  0.1527E+00  0.2568E+01  0.2568E+01
      3.595  0.5229E+00  0.5155E+00  0.2609E+01  0.2608E+01
      3.672  0.1343E+01  0.1334E+01  0.2712E+01  0.2711E+01
      3.749  0.1452E+01  0.1459E+01  0.2824E+01  0.2823E+01
      3.826  0.6317E+00  0.6403E+00  0.2873E+01  0.2873E+01
      3.903  0.1792E+00  0.1818E+00  0.2887E+01  0.2887E+01
      3.980  0.1003E+00  0.9990E-01  0.2894E+01  0.2894E+01
      4.057  0.2696E+00  0.2659E+00  0.2915E+01  0.2915E+01
      4.134  0.7715E+00  0.7649E+00  0.2975E+01  0.2974E+01
      4.211  0.1039E+01  0.1041E+01  0.3055E+01  0.3054E+01
      4.288  0.5401E+00  0.5463E+00  0.3096E+01  0.3096E+01
      4.366  0.1685E+00  0.1708E+00  0.3109E+01  0.3109E+01
      4.443  0.1099E+00  0.1098E+00  0.3118E+01  0.3118E+01
      4.520  0.2881E+00  0.2859E+00  0.3140E+01  0.3140E+01
      4.597  0.6499E+00  0.6466E+00  0.3190E+01  0.3190E+01
      4.674  0.8120E+00  0.8101E+00  0.3253E+01  0.3252E+01
      4.751  0.6635E+00  0.6663E+00  0.3304E+01  0.3304E+01
      4.828  0.3169E+00  0.3205E+00  0.3328E+01  0.3328E+01
      4.905  0.2073E+00  0.2073E+00  0.3344E+01  0.3344E+01
      4.982  0.5383E+00  0.5335E+00  0.3386E+01  0.3386E+01
      5.059  0.1485E+01  0.1475E+01  0.3500E+01  0.3499E+01
      5.136  0.2262E+01  0.2257E+01  0.3675E+01  0.3673E+01
      5.213  0.1782E+01  0.1791E+01  0.3812E+01  0.3811E+01
      5.290  0.7516E+00  0.7605E+00  0.3870E+01  0.3870E+01
      5.367  0.2469E+00  0.2496E+00  0.3889E+01  0.3889E+01
      5.444  0.2398E+00  0.2388E+00  0.3908E+01  0.3907E+01
      5.522  0.5824E+00  0.5786E+00  0.3953E+01  0.3952E+01
      5.599  0.9996E+00  0.9942E+00  0.4030E+01  0.4029E+01
      5.676  0.1250E+01  0.1248E+01  0.4126E+01  0.4125E+01
      5.753  0.8772E+00  0.8845E+00  0.4194E+01  0.4193E+01
      5.830  0.3556E+00  0.3595E+00  0.4221E+01  0.4221E+01
      5.907  0.3239E+00  0.3232E+00  0.4246E+01  0.4246E+01
      5.984  0.7797E+00  0.7761E+00  0.4306E+01  0.4306E+01
      6.061  0.1106E+01  0.1106E+01  0.4392E+01  0.4391E+01
      6.138  0.7106E+00  0.7127E+00  0.4447E+01  0.4446E+01
      6.215  0.3239E+00  0.3263E+00  0.4471E+01  0.4471E+01
      6.292  0.1283E+00  0.1294E+00  0.4481E+01  0.4481E+01
      6.369  0.1356E+00  0.1349E+00  0.4492E+01  0.4492E+01
      6.446  0.4454E+00  0.4415E+00  0.4526E+01  0.4526E+01
      6.523  0.1222E+01  0.1215E+01  0.4620E+01  0.4619E+01
      6.600  0.1789E+01  0.1785E+01  0.4758E+01  0.4757E+01
      6.677  0.1405E+01  0.1412E+01  0.4867E+01  0.4866E+01
      6.755  0.5782E+00  0.5852E+00  0.4911E+01  0.4911E+01
      6.832  0.1636E+00  0.1658E+00  0.4924E+01  0.4924E+01
      6.909  0.8904E-01  0.8884E-01  0.4931E+01  0.4931E+01
      6.986  0.2159E+00  0.2136E+00  0.4947E+01  0.4947E+01
      7.063  0.4849E+00  0.4829E+00  0.4985E+01  0.4984E+01
      7.140  0.4538E+00  0.4562E+00  0.5020E+01  0.5020E+01
      7.217  0.2015E+00  0.2034E+00  0.5035E+01  0.5035E+01
      7.294  0.1687E+00  0.1683E+00  0.5048E+01  0.5048E+01
      7.371  0.5128E+00  0.5093E+00  0.5088E+01  0.5088E+01
      7.448  0.1388E+01  0.1382E+01  0.5195E+01  0.5194E+01
      7.525  0.1832E+01  0.1832E+01  0.5336E+01  0.5335E+01
      7.602  0.1235E+01  0.1239E+01  0.5431E+01  0.5431E+01
      7.679  0.5686E+00  0.5709E+00  0.5475E+01  0.5475E+01
      7.756  0.4126E+00  0.4072E+00  0.5507E+01  0.5506E+01
      7.833  0.7535E+00  0.7470E+00  0.5565E+01  0.5564E+01
      7.910  0.1178E+01  0.1181E+01  0.5656E+01  0.5655E+01
      7.988  0.1445E+01  0.1448E+01  0.5767E+01  0.5767E+01
      8.065  0.1192E+01  0.1193E+01  0.5859E+01  0.5858E+01
      8.142  0.8035E+00  0.8026E+00  0.5921E+01  0.5920E+01
      8.219  0.7925E+00  0.7811E+00  0.5982E+01  0.5981E+01
      8.296  0.1114E+01  0.1111E+01  0.6068E+01  0.6066E+01
      8.373  0.7918E+00  0.8059E+00  0.6129E+01  0.6128E+01
      8.450  0.4464E+00  0.4518E+00  0.6164E+01  0.6163E+01
      8.527  0.5399E+00  0.5397E+00  0.6205E+01  0.6205E+01
      8.604  0.4750E+00  0.4779E+00  0.6242E+01  0.6242E+01
      8.681  0.2290E+00  0.2301E+00  0.6260E+01  0.6260E+01
      8.758  0.2712E+00  0.2669E+00  0.6281E+01  0.6280E+01
      8.835  0.8014E+00  0.7899E+00  0.6343E+01  0.6341E+01
      8.912  0.1530E+01  0.1528E+01  0.6461E+01  0.6459E+01
      8.989  0.1186E+01  0.1197E+01  0.6552E+01  0.6551E+01
      9.066  0.4686E+00  0.4729E+00  0.6588E+01  0.6588E+01
      9.144  0.3366E+00  0.3310E+00  0.6614E+01  0.6613E+01
      9.221  0.7677E+00  0.7533E+00  0.6673E+01  0.6671E+01
      9.298  0.1215E+01  0.1216E+01  0.6767E+01  0.6765E+01
      9.375  0.1148E+01  0.1158E+01  0.6855E+01  0.6854E+01
      9.452  0.1222E+01  0.1226E+01  0.6950E+01  0.6949E+01
      9.529  0.8122E+00  0.8176E+00  0.7012E+01  0.7012E+01
      9.606  0.3325E+00  0.3333E+00  0.7038E+01  0.7038E+01
      9.683  0.3700E+00  0.3629E+00  0.7067E+01  0.7066E+01
      9.760  0.1107E+01  0.1088E+01  0.7152E+01  0.7150E+01
      9.837  0.2162E+01  0.2155E+01  0.7319E+01  0.7316E+01
      9.914  0.1871E+01  0.1887E+01  0.7463E+01  0.7461E+01
      9.991  0.1061E+01  0.1072E+01  0.7545E+01  0.7544E+01
     10.068  0.4631E+00  0.4692E+00  0.7580E+01  0.7580E+01
     10.145  0.1592E+00  0.1611E+00  0.7593E+01  0.7593E+01
     10.222  0.1490E+00  0.1520E+00  0.7605E+01  0.7605E+01
     10.299  0.3816E+00  0.3798E+00  0.7634E+01  0.7634E+01
     10.377  0.5232E+00  0.5237E+00  0.7675E+01  0.7674E+01
     10.454  0.2822E+00  0.2838E+00  0.7696E+01  0.7696E+01
     10.531  0.1028E+00  0.1029E+00  0.7704E+01  0.7704E+01
     10.608  0.1252E+00  0.1229E+00  0.7714E+01  0.7714E+01
     10.685  0.4442E+00  0.4353E+00  0.7748E+01  0.7747E+01
     10.762  0.1293E+01  0.1277E+01  0.7848E+01  0.7846E+01
     10.839  0.1926E+01  0.1916E+01  0.7996E+01  0.7993E+01
     10.916  0.1771E+01  0.1762E+01  0.8133E+01  0.8129E+01
     10.993  0.1443E+01  0.1455E+01  0.8244E+01  0.8241E+01
     11.070  0.1219E+01  0.1223E+01  0.8338E+01  0.8335E+01
     11.147  0.1374E+01  0.1371E+01  0.8444E+01  0.8441E+01
     11.224  0.1210E+01  0.1223E+01  0.8537E+01  0.8536E+01
     11.301  0.5517E+00  0.5662E+00  0.8580E+01  0.8579E+01
     11.378  0.2133E+00  0.2165E+00  0.8596E+01  0.8596E+01
     11.455  0.3215E+00  0.3155E+00  0.8621E+01  0.8620E+01
     11.532  0.8665E+00  0.8547E+00  0.8688E+01  0.8686E+01
     11.610  0.1281E+01  0.1285E+01  0.8787E+01  0.8785E+01
     11.687  0.1046E+01  0.1057E+01  0.8867E+01  0.8867E+01
     11.764  0.6271E+00  0.6311E+00  0.8916E+01  0.8915E+01
     11.841  0.3572E+00  0.3574E+00  0.8943E+01  0.8943E+01
     11.918  0.2715E+00  0.2705E+00  0.8964E+01  0.8964E+01
     11.995  0.3955E+00  0.3880E+00  0.8995E+01  0.8994E+01
     12.072  0.1036E+01  0.1020E+01  0.9075E+01  0.9073E+01
     12.149  0.2146E+01  0.2131E+01  0.9240E+01  0.9237E+01
     12.226  0.2759E+01  0.2767E+01  0.9453E+01  0.9450E+01
     12.303  0.1636E+01  0.1658E+01  0.9579E+01  0.9578E+01
     12.380  0.5236E+00  0.5325E+00  0.9619E+01  0.9619E+01
     12.457  0.1891E+00  0.1884E+00  0.9634E+01  0.9633E+01
     12.534  0.3271E+00  0.3151E+00  0.9659E+01  0.9658E+01
     12.611  0.1067E+01  0.1034E+01  0.9742E+01  0.9738E+01
     12.688  0.2079E+01  0.2065E+01  0.9902E+01  0.9897E+01
     12.765  0.1594E+01  0.1628E+01  0.1002E+02  0.1002E+02
     12.843  0.7175E+00  0.7334E+00  0.1008E+02  0.1008E+02
     12.920  0.7927E+00  0.7850E+00  0.1014E+02  0.1014E+02
     12.997  0.1396E+01  0.1390E+01  0.1025E+02  0.1025E+02
     13.074  0.1546E+01  0.1545E+01  0.1037E+02  0.1037E+02
     13.151  0.1513E+01  0.1503E+01  0.1049E+02  0.1048E+02
     13.228  0.1202E+01  0.1216E+01  0.1058E+02  0.1058E+02
     13.305  0.5078E+00  0.5248E+00  0.1062E+02  0.1062E+02
     13.382  0.1532E+00  0.1580E+00  0.1063E+02  0.1063E+02
     13.459  0.1295E+00  0.1270E+00  0.1064E+02  0.1064E+02
     13.536  0.3337E+00  0.3254E+00  0.1066E+02  0.1066E+02
     13.613  0.5346E+00  0.5332E+00  0.1071E+02  0.1070E+02
     13.690  0.3488E+00  0.3519E+00  0.1073E+02  0.1073E+02
     13.767  0.2047E+00  0.1844E+00  0.1075E+02  0.1075E+02
     13.844  0.4521E+00  0.3621E+00  0.1078E+02  0.1077E+02
     13.921  0.1221E+01  0.1048E+01  0.1088E+02  0.1085E+02
     13.999  0.1538E+01  0.1571E+01  0.1100E+02  0.1098E+02
     14.076  0.7797E+00  0.9474E+00  0.1106E+02  0.1105E+02
     14.153  0.3280E+00  0.3946E+00  0.1108E+02  0.1108E+02
     14.230  0.3762E+00  0.3882E+00  0.1111E+02  0.1111E+02
     14.307  0.4821E+00  0.4855E+00  0.1115E+02  0.1115E+02
     14.384  0.7130E+00  0.7052E+00  0.1120E+02  0.1120E+02
     14.461  0.1426E+01  0.1417E+01  0.1131E+02  0.1131E+02
     14.538  0.1408E+01  0.1421E+01  0.1142E+02  0.1142E+02
     14.615  0.5843E+00  0.5950E+00  0.1147E+02  0.1147E+02
     14.692  0.1513E+00  0.1545E+00  0.1148E+02  0.1148E+02
     14.769  0.3389E-01  0.3462E-01  0.1148E+02  0.1148E+02
     14.846  0.8040E-02  0.8173E-02  0.1148E+02  0.1148E+02
     14.923  0.2606E-02  0.2515E-02  0.1148E+02  0.1148E+02
     15.000  0.1211E-01  0.1169E-01  0.1148E+02  0.1148E+02
     15.077  0.5526E-01  0.5340E-01  0.1149E+02  0.1149E+02
     15.154  0.2322E+00  0.2252E+00  0.1150E+02  0.1150E+02
     15.232  0.7186E+00  0.7048E+00  0.1156E+02  0.1156E+02
     15.309  0.1056E+01  0.1058E+01  0.1164E+02  0.1164E+02
     15.386  0.6016E+00  0.6144E+00  0.1169E+02  0.1169E+02
     15.463  0.2275E+00  0.2312E+00  0.1171E+02  0.1171E+02
     15.540  0.1861E+00  0.1850E+00  0.1172E+02  0.1172E+02
     15.617  0.1721E+00  0.1741E+00  0.1173E+02  0.1173E+02
     15.694  0.7257E-01  0.7486E-01  0.1174E+02  0.1174E+02
     15.771  0.1926E-01  0.2003E-01  0.1174E+02  0.1174E+02
     15.848  0.4337E-02  0.4520E-02  0.1174E+02  0.1174E+02
     15.925  0.9389E-03  0.9790E-03  0.1174E+02  0.1174E+02
     16.002  0.0000E+00  0.0000E+00  0.1174E+02  0.1174E+02
     16.079  0.0000E+00  0.0000E+00  0.1174E+02  0.1174E+02
     16.156  0.1533E-03  0.1463E-03  0.1174E+02  0.1174E+02
     16.233  0.5626E-03  0.5367E-03  0.1174E+02  0.1174E+02
     16.310  0.2622E-02  0.2502E-02  0.1174E+02  0.1174E+02
     16.387  0.1212E-01  0.1157E-01  0.1174E+02  0.1174E+02
     16.465  0.5400E-01  0.5166E-01  0.1175E+02  0.1175E+02
     16.542  0.2062E+00  0.1989E+00  0.1176E+02  0.1176E+02
     16.619  0.4809E+00  0.4743E+00  0.1180E+02  0.1180E+02
     16.696  0.4510E+00  0.4586E+00  0.1183E+02  0.1183E+02
     16.773  0.1767E+00  0.1834E+00  0.1185E+02  0.1185E+02
     16.850  0.4477E-01  0.4682E-01  0.1185E+02  0.1185E+02
     16.927  0.9965E-02  0.1044E-01  0.1185E+02  0.1185E+02
     17.004  0.2152E-02  0.2255E-02  0.1185E+02  0.1185E+02
     17.081  0.2606E-03  0.2510E-03  0.1185E+02  0.1185E+02
     17.158  0.9557E-03  0.9204E-03  0.1185E+02  0.1185E+02
     17.235  0.4447E-02  0.4283E-02  0.1185E+02  0.1185E+02
     17.312  0.2041E-01  0.1967E-01  0.1185E+02  0.1185E+02
     17.389  0.8813E-01  0.8517E-01  0.1186E+02  0.1186E+02
     17.466  0.2990E+00  0.2919E+00  0.1188E+02  0.1188E+02
     17.543  0.5273E+00  0.5259E+00  0.1192E+02  0.1192E+02
     17.621  0.3536E+00  0.3609E+00  0.1195E+02  0.1195E+02
     17.698  0.1133E+00  0.1171E+00  0.1196E+02  0.1196E+02
     17.775  0.2701E-01  0.2801E-01  0.1196E+02  0.1196E+02
     17.852  0.6362E-02  0.6567E-02  0.1196E+02  0.1196E+02
     17.929  0.2195E-02  0.2102E-02  0.1196E+02  0.1196E+02
     18.006  0.9991E-02  0.9580E-02  0.1196E+02  0.1196E+02
     18.083  0.4162E-01  0.4009E-01  0.1197E+02  0.1197E+02
     18.160  0.1251E+00  0.1223E+00  0.1198E+02  0.1198E+02
     18.237  0.1741E+00  0.1749E+00  0.1199E+02  0.1199E+02
     18.314  0.9267E-01  0.9535E-01  0.1200E+02  0.1200E+02
     18.391  0.2653E-01  0.2760E-01  0.1200E+02  0.1200E+02
     18.468  0.6095E-02  0.6360E-02  0.1200E+02  0.1200E+02
     18.545  0.1326E-02  0.1384E-02  0.1200E+02  0.1200E+02
     18.622  0.0000E+00  0.0000E+00  0.1200E+02  0.1200E+02
     18.699  0.0000E+00  0.0000E+00  0.1200E+02  0.1200E+02
     18.776  0.0000E+00  0.0000E+00  0.1200E+02  0.1200E+02
     18.854  0.0000E+00  0.0000E+00  0.1200E+02  0.1200E+02
     18.931  0.0000E+00  0.0000E+00  0.1200E+02  0.1200E+02
     19.008  0.0000E+00  0.0000E+00  0.1200E+02  0.1200E+02
     19.085  0.0000E+00  0.0000E+00  0.1200E+02  0.1200E+02
     19.162  0.0000E+00  0.0000E+00  0.1200E+02  0.1200E+02
     19.239  0.0000E+00  0.0000E+00  0.1200E+02  0.1200E+02
     19.23884494     -3.88025288  301      8.23666515      1.00000000
     -3.880  0.0000E+00  0.0000E+00  0.0000E+00  0.0000E+00  0.0000E+00  0.0000E+00  0.0000E+00  0.0000E+00  0.0000E+00  0.0000E+00  0.0000E+00  0.0000E+00  0.0000E+00  0.0000E+00  0.0000E+00  0.0000E+00  0.0000E+00  0.0000E+00
     -3.803  0.0000E+00  0.0000E+00  0.0000E+00  0.0000E+00  0.0000E+00  0.0000E+00  0.0000E+00  0.0000E+00  0.0000E+00  0.0000E+00  0.0000E+00  0.0000E+00  0.0000E+00  0.0000E+00  0.0000E+00  0.0000E+00  0.0000E+00  0.0000E+00
     -3.726  0.0000E+00  0.0000E+00  0.0000E+00  0.0000E+00  0.0000E+00  0.0000E+00  0.0000E+00  0.0000E+00  0.0000E+00  0.0000E+00  0.0000E+00  0.0000E+00  0.0000E+00  0.0000E+00  0.0000E+00  0.0000E+00  0.0000E+00  0.0000E+00
     -3.649  0.0000E+00  0.0000E+00  0.0000E+00  0.0000E+00  0.0000E+00  0.0000E+00  0.0000E+00  0.0000E+00  0.0000E+00  0.0000E+00  0.0000E+00  0.0000E+00  0.0000E+00  0.0000E+00  0.0000E+00  0.0000E+00  0.0000E+00  0.0000E+00
     -3.572  0.0000E+00  0.0000E+00  0.0000E+00  0.0000E+00  0.0000E+00  0.0000E+00  0.0000E+00  0.0000E+00  0.0000E+00  0.0000E+00  0.0000E+00  0.0000E+00  0.0000E+00  0.0000E+00  0.0000E+00  0.0000E+00  0.0000E+00  0.0000E+00
     -3.495  0.0000E+00  0.0000E+00  0.0000E+00  0.0000E+00  0.0000E+00  0.0000E+00  0.0000E+00  0.0000E+00  0.0000E+00  0.0000E+00  0.0000E+00  0.0000E+00  0.0000E+00  0.0000E+00  0.0000E+00  0.0000E+00  0.0000E+00  0.0000E+00
     -3.418  0.0000E+00  0.0000E+00  0.0000E+00  0.0000E+00  0.0000E+00  0.0000E+00  0.0000E+00  0.0000E+00  0.0000E+00  0.0000E+00  0.0000E+00  0.0000E+00  0.0000E+00  0.0000E+00  0.0000E+00  0.0000E+00  0.0000E+00  0.0000E+00
     -3.341  0.0000E+00  0.0000E+00  0.0000E+00  0.0000E+00  0.0000E+00  0.0000E+00  0.0000E+00  0.0000E+00  0.0000E+00  0.0000E+00  0.0000E+00  0.0000E+00  0.0000E+00  0.0000E+00  0.0000E+00  0.0000E+00  0.0000E+00  0.0000E+00
     -3.264  0.5511E-05  0.5392E-05  0.2720E-07  0.2663E-07  0.2720E-07  0.2663E-07  0.2720E-07  0.2663E-07  0.0000E+00  0.0000E+00  0.0000E+00  0.0000E+00  0.0000E+00  0.0000E+00  0.0000E+00  0.0000E+00  0.0000E+00  0.0000E+00
     -3.187  0.2021E-04  0.1978E-04  0.9976E-07  0.9767E-07  0.9976E-07  0.9767E-07  0.9976E-07  0.9767E-07  0.0000E+00  0.0000E+00  0.0000E+00  0.0000E+00  0.0000E+00  0.0000E+00  0.0000E+00  0.0000E+00  0.0000E+00  0.0000E+00
     -3.110  0.9407E-04  0.9206E-04  0.4643E-06  0.4546E-06  0.4643E-06  0.4546E-06  0.4643E-06  0.4546E-06  0.0000E+00  0.0000E+00  0.0000E+00  0.0000E+00  0.0000E+00  0.0000E+00  0.0000E+00  0.0000E+00  0.0000E+00  0.0000E+00
     -3.033  0.4323E-03  0.4232E-03  0.2134E-05  0.2090E-05  0.2134E-05  0.2090E-05  0.2134E-05  0.2090E-05  0.0000E+00  0.0000E+00  0.0000E+00  0.0000E+00  0.0000E+00  0.0000E+00  0.0000E+00  0.0000E+00  0.0000E+00  0.0000E+00
     -2.955  0.1876E-02  0.1839E-02  0.9258E-05  0.9081E-05  0.9258E-05  0.9081E-05  0.9258E-05  0.9081E-05  0.0000E+00  0.0000E+00  0.0000E+00  0.0000E+00  0.0000E+00  0.0000E+00  0.0000E+00  0.0000E+00  0.0000E+00  0.0000E+00
     -2.878  0.6481E-02  0.6387E-02  0.3199E-04  0.3154E-04  0.3199E-04  0.3154E-04  0.3199E-04  0.3154E-04  0.0000E+00  0.0000E+00  0.0000E+00  0.0000E+00  0.0000E+00  0.0000E+00  0.0000E+00  0.0000E+00  0.0000E+00  0.0000E+00
     -2.801  0.1188E-01  0.1185E-01  0.5866E-04  0.5852E-04  0.5866E-04  0.5852E-04  0.5866E-04  0.5852E-04  0.0000E+00  0.0000E+00  0.0000E+00  0.0000E+00  0.0000E+00  0.0000E+00  0.0000E+00  0.0000E+00  0.0000E+00  0.0000E+00
     -2.724  0.8341E-02  0.8423E-02  0.4154E-04  0.4196E-04  0.4154E-04  0.4196E-04  0.4154E-04  0.4196E-04  0.0000E+00  0.0000E+00  0.0000E+00  0.0000E+00  0.0000E+00  0.0000E+00  0.0000E+00  0.0000E+00  0.0000E+00  0.0000E+00
     -2.647  0.2825E-02  0.2869E-02  0.1531E-04  0.1551E-04  0.1531E-04  0.1551E-04  0.1531E-04  0.1551E-04  0.0000E+00  0.0000E+00  0.0000E+00  0.0000E+00  0.0000E+00  0.0000E+00  0.0000E+00  0.0000E+00  0.0000E+00  0.0000E+00
     -2.570  0.1115E-02  0.1117E-02  0.1183E-04  0.1172E-04  0.1183E-04  0.1172E-04  0.1183E-04  0.1172E-04  0.0000E+00  0.0000E+00  0.0000E+00  0.0000E+00  0.0000E+00  0.0000E+00  0.0000E+00  0.0000E+00  0.0000E+00  0.0000E+00
     -2.493  0.2249E-02  0.2208E-02  0.3985E-04  0.3908E-04  0.3985E-04  0.3908E-04  0.3985E-04  0.3908E-04  0.0000E+00  0.0000E+00  0.0000E+00  0.0000E+00  0.0000E+00  0.0000E+00  0.0000E+00  0.0000E+00  0.0000E+00  0.0000E+00
     -2.416  0.8699E-02  0.8539E-02  0.1617E-03  0.1588E-03  0.1617E-03  0.1588E-03  0.1617E-03  0.1588E-03  0.0000E+00  0.0000E+00  0.0000E+00  0.0000E+00  0.0000E+00  0.0000E+00  0.0000E+00  0.0000E+00  0.0000E+00  0.0000E+00
     -2.339  0.2546E-01  0.2518E-01  0.4734E-03  0.4684E-03  0.4734E-03  0.4684E-03  0.4734E-03  0.4684E-03  0.0000E+00  0.0000E+00  0.0000E+00  0.0000E+00  0.0000E+00  0.0000E+00  0.0000E+00  0.0000E+00  0.0000E+00  0.0000E+00
     -2.262  0.3382E-01  0.3388E-01  0.6288E-03  0.6304E-03  0.6288E-03  0.6304E-03  0.6288E-03  0.6304E-03  0.0000E+00  0.0000E+00  0.0000E+00  0.0000E+00  0.0000E+00  0.0000E+00  0.0000E+00  0.0000E+00  0.0000E+00  0.0000E+00
     -2.185  0.1730E-01  0.1753E-01  0.3223E-03  0.3267E-03  0.3223E-03  0.3267E-03  0.3223E-03  0.3267E-03  0.0000E+00  0.0000E+00  0.0000E+00  0.0000E+00  0.0000E+00  0.0000E+00  0.0000E+00  0.0000E+00  0.0000E+00  0.0000E+00
     -2.108  0.5025E-02  0.5110E-02  0.9587E-04  0.9745E-04  0.9587E-04  0.9745E-04  0.9587E-04  0.9745E-04  0.0000E+00  0.0000E+00  0.0000E+00  0.0000E+00  0.0000E+00  0.0000E+00  0.0000E+00  0.0000E+00  0.0000E+00  0.0000E+00
     -2.031  0.1898E-02  0.1903E-02  0.4655E-04  0.4644E-04  0.4655E-04  0.4644E-04  0.4655E-04  0.4644E-04  0.0000E+00  0.0000E+00  0.0000E+00  0.0000E+00  0.0000E+00  0.0000E+00  0.0000E+00  0.0000E+00  0.0000E+00  0.0000E+00
     -1.954  0.3747E-02  0.3681E-02  0.1198E-03  0.1176E-03  0.1198E-03  0.1176E-03  0.1198E-03  0.1176E-03  0.0000E+00  0.0000E+00  0.0000E+00  0.0000E+00  0.0000E+00  0.0000E+00  0.0000E+00  0.0000E+00  0.0000E+00  0.0000E+00
     -1.877  0.1330E-01  0.1308E-01  0.4373E-03  0.4304E-03  0.4373E-03  0.4304E-03  0.4373E-03  0.4304E-03  0.0000E+00  0.0000E+00  0.0000E+00  0.0000E+00  0.0000E+00  0.0000E+00  0.0000E+00  0.0000E+00  0.0000E+00  0.0000E+00
     -1.800  0.3048E-01  0.3028E-01  0.1002E-02  0.9964E-03  0.1002E-02  0.9964E-03  0.1002E-02  0.9964E-03  0.0000E+00  0.0000E+00  0.0000E+00  0.0000E+00  0.0000E+00  0.0000E+00  0.0000E+00  0.0000E+00  0.0000E+00  0.0000E+00
     -1.722  0.2796E-01  0.2814E-01  0.9197E-03  0.9264E-03  0.9197E-03  0.9264E-03  0.9197E-03  0.9264E-03  0.0000E+00  0.0000E+00  0.0000E+00  0.0000E+00  0.0000E+00  0.0000E+00  0.0000E+00  0.0000E+00  0.0000E+00  0.0000E+00
     -1.645  0.1086E-01  0.1103E-01  0.3585E-03  0.3642E-03  0.3585E-03  0.3642E-03  0.3585E-03  0.3642E-03  0.0000E+00  0.0000E+00  0.0000E+00  0.0000E+00  0.0000E+00  0.0000E+00  0.0000E+00  0.0000E+00  0.0000E+00  0.0000E+00
     -1.568  0.3117E-02  0.3160E-02  0.1087E-03  0.1101E-03  0.1087E-03  0.1101E-03  0.1087E-03  0.1101E-03  0.0000E+00  0.0000E+00  0.0000E+00  0.0000E+00  0.0000E+00  0.0000E+00  0.0000E+00  0.0000E+00  0.0000E+00  0.0000E+00
     -1.491  0.2446E-02  0.2419E-02  0.1089E-03  0.1075E-03  0.1089E-03  0.1075E-03  0.1089E-03  0.1075E-03  0.0000E+00  0.0000E+00  0.0000E+00  0.0000E+00  0.0000E+00  0.0000E+00  0.0000E+00  0.0000E+00  0.0000E+00  0.0000E+00
     -1.414  0.8007E-02  0.7859E-02  0.3850E-03  0.3781E-03  0.3850E-03  0.3781E-03  0.3850E-03  0.3781E-03  0.0000E+00  0.0000E+00  0.0000E+00  0.0000E+00  0.0000E+00  0.0000E+00  0.0000E+00  0.0000E+00  0.0000E+00  0.0000E+00
     -1.337  0.2584E-01  0.2550E-01  0.1249E-02  0.1233E-02  0.1249E-02  0.1233E-02  0.1249E-02  0.1233E-02  0.0000E+00  0.0000E+00  0.0000E+00  0.0000E+00  0.0000E+00  0.0000E+00  0.0000E+00  0.0000E+00  0.0000E+00  0.0000E+00
     -1.260  0.4249E-01  0.4243E-01  0.2054E-02  0.2052E-02  0.2054E-02  0.2052E-02  0.2054E-02  0.2052E-02  0.0000E+00  0.0000E+00  0.0000E+00  0.0000E+00  0.0000E+00  0.0000E+00  0.0000E+00  0.0000E+00  0.0000E+00  0.0000E+00
     -1.183  0.2653E-01  0.2682E-01  0.1283E-02  0.1298E-02  0.1283E-02  0.1298E-02  0.1283E-02  0.1298E-02  0.0000E+00  0.0000E+00  0.0000E+00  0.0000E+00  0.0000E+00  0.0000E+00  0.0000E+00  0.0000E+00  0.0000E+00  0.0000E+00
     -1.106  0.8407E-02  0.8544E-02  0.4102E-03  0.4170E-03  0.4102E-03  0.4170E-03  0.4102E-03  0.4170E-03  0.0000E+00  0.0000E+00  0.0000E+00  0.0000E+00  0.0000E+00  0.0000E+00  0.0000E+00  0.0000E+00  0.0000E+00  0.0000E+00
     -1.029  0.3021E-02  0.3035E-02  0.1637E-03  0.1641E-03  0.1637E-03  0.1641E-03  0.1637E-03  0.1641E-03  0.0000E+00  0.0000E+00  0.0000E+00  0.0000E+00  0.0000E+00  0.0000E+00  0.0000E+00  0.0000E+00  0.0000E+00  0.0000E+00
     -0.952  0.5389E-02  0.5296E-02  0.3400E-03  0.3341E-03  0.3400E-03  0.3341E-03  0.3400E-03  0.3341E-03  0.0000E+00  0.0000E+00  0.0000E+00  0.0000E+00  0.0000E+00  0.0000E+00  0.0000E+00  0.0000E+00  0.0000E+00  0.0000E+00
     -0.875  0.1973E-01  0.1939E-01  0.1270E-02  0.1248E-02  0.1270E-02  0.1248E-02  0.1270E-02  0.1248E-02  0.0000E+00  0.0000E+00  0.0000E+00  0.0000E+00  0.0000E+00  0.0000E+00  0.0000E+00  0.0000E+00  0.0000E+00  0.0000E+00
     -0.798  0.5123E-01  0.5078E-01  0.3296E-02  0.3270E-02  0.3296E-02  0.3270E-02  0.3296E-02  0.3270E-02  0.0000E+00  0.0000E+00  0.0000E+00  0.0000E+00  0.0000E+00  0.0000E+00  0.0000E+00  0.0000E+00  0.0000E+00  0.0000E+00
     -0.721  0.5605E-01  0.5629E-01  0.3607E-02  0.3625E-02  0.3607E-02  0.3625E-02  0.3607E-02  0.3625E-02  0.0000E+00  0.0000E+00  0.0000E+00  0.0000E+00  0.0000E+00  0.0000E+00  0.0000E+00  0.0000E+00  0.0000E+00  0.0000E+00
     -0.644  0.2454E-01  0.2489E-01  0.1580E-02  0.1603E-02  0.1580E-02  0.1603E-02  0.1580E-02  0.1603E-02  0.0000E+00  0.0000E+00  0.0000E+00  0.0000E+00  0.0000E+00  0.0000E+00  0.0000E+00  0.0000E+00  0.0000E+00  0.0000E+00
     -0.567  0.6687E-02  0.6800E-02  0.4340E-03  0.4415E-03  0.4340E-03  0.4415E-03  0.4340E-03  0.4415E-03  0.0000E+00  0.0000E+00  0.0000E+00  0.0000E+00  0.0000E+00  0.0000E+00  0.0000E+00  0.0000E+00  0.0000E+00  0.0000E+00
     -0.489  0.2495E-02  0.2501E-02  0.1780E-03  0.1781E-03  0.1780E-03  0.1781E-03  0.1780E-03  0.1781E-03  0.0000E+00  0.0000E+00  0.0000E+00  0.0000E+00  0.0000E+00  0.0000E+00  0.0000E+00  0.0000E+00  0.0000E+00  0.0000E+00
     -0.412  0.4840E-02  0.4758E-02  0.3873E-03  0.3808E-03  0.3873E-03  0.3808E-03  0.3873E-03  0.3808E-03  0.0000E+00  0.0000E+00  0.0000E+00  0.0000E+00  0.0000E+00  0.0000E+00  0.0000E+00  0.0000E+00  0.0000E+00  0.0000E+00
     -0.335  0.1568E-01  0.1545E-01  0.1271E-02  0.1254E-02  0.1271E-02  0.1254E-02  0.1271E-02  0.1254E-02  0.0000E+00  0.0000E+00  0.0000E+00  0.0000E+00  0.0000E+00  0.0000E+00  0.0000E+00  0.0000E+00  0.0000E+00  0.0000E+00
     -0.258  0.2892E-01  0.2883E-01  0.2346E-02  0.2340E-02  0.2346E-02  0.2340E-02  0.2346E-02  0.2340E-02  0.0000E+00  0.0000E+00  0.0000E+00  0.0000E+00  0.0000E+00  0.0000E+00  0.0000E+00  0.0000E+00  0.0000E+00  0.0000E+00
     -0.181  0.2039E-01  0.2058E-01  0.1654E-02  0.1671E-02  0.1654E-02  0.1671E-02  0.1654E-02  0.1671E-02  0.0000E+00  0.0000E+00  0.0000E+00  0.0000E+00  0.0000E+00  0.0000E+00  0.0000E+00  0.0000E+00  0.0000E+00  0.0000E+00
     -0.104  0.6885E-02  0.6992E-02  0.5622E-03  0.5712E-03  0.5622E-03  0.5712E-03  0.5622E-03  0.5712E-03  0.0000E+00  0.0000E+00  0.0000E+00  0.0000E+00  0.0000E+00  0.0000E+00  0.0000E+00  0.0000E+00  0.0000E+00  0.0000E+00
     -0.027  0.2496E-02  0.2508E-02  0.2202E-03  0.2209E-03  0.2202E-03  0.2209E-03  0.2202E-03  0.2209E-03  0.0000E+00  0.0000E+00  0.0000E+00  0.0000E+00  0.0000E+00  0.0000E+00  0.0000E+00  0.0000E+00  0.0000E+00  0.0000E+00