   4   4   1   0
  0.2018999E+02  0.4322470E-09  0.4322470E-09  0.4322470E-09  0.5000000E-15
  1.000000000000000E-004
  CAR 
 unknown system                          
     15.26491090     -4.50157176  301      5.89739591      1.00000000
     -4.502  0.0000E+00  0.0000E+00  0.0000E+00  0.0000E+00
     -4.436  0.0000E+00  0.0000E+00  0.0000E+00  0.0000E+00
     -4.370  0.0000E+00  0.0000E+00  0.0000E+00  0.0000E+00
     -4.304  0.0000E+00  0.0000E+00  0.0000E+00  0.0000E+00
     -4.238  0.0000E+00  0.0000E+00  0.0000E+00  0.0000E+00
     -4.172  0.0000E+00  0.0000E+00  0.0000E+00  0.0000E+00
     -4.106  0.0000E+00  0.0000E+00  0.0000E+00  0.0000E+00
     -4.040  0.8949E-04  0.8006E-04  0.5896E-05  0.5275E-05
     -3.974  0.2446E-03  0.2188E-03  0.2201E-04  0.1969E-04
     -3.909  0.9118E-03  0.8159E-03  0.8209E-04  0.7345E-04
     -3.843  0.3380E-02  0.3027E-02  0.3048E-03  0.2729E-03
     -3.777  0.1227E-01  0.1102E-01  0.1113E-02  0.9990E-03
     -3.711  0.4142E-01  0.3758E-01  0.3842E-02  0.3475E-02
     -3.645  0.1114E+00  0.1040E+00  0.1118E-01  0.1033E-01
     -3.579  0.1779E+00  0.1758E+00  0.2290E-01  0.2191E-01
     -3.513  0.1362E+00  0.1431E+00  0.3187E-01  0.3134E-01
     -3.447  0.6032E-01  0.6514E-01  0.3585E-01  0.3563E-01
     -3.381  0.3305E-01  0.3333E-01  0.3803E-01  0.3783E-01
     -3.316  0.6116E-01  0.5609E-01  0.4205E-01  0.4152E-01
     -3.250  0.1818E+00  0.1664E+00  0.5403E-01  0.5248E-01
     -3.184  0.4219E+00  0.4007E+00  0.8186E-01  0.7892E-01
     -3.118  0.5283E+00  0.5338E+00  0.1167E+00  0.1141E+00
     -3.052  0.3186E+00  0.3404E+00  0.1377E+00  0.1365E+00
     -2.986  0.1219E+00  0.1329E+00  0.1457E+00  0.1453E+00
     -2.920  0.5885E-01  0.6011E-01  0.1496E+00  0.1492E+00
     -2.854  0.9649E-01  0.8915E-01  0.1559E+00  0.1551E+00
     -2.788  0.2602E+00  0.2407E+00  0.1731E+00  0.1710E+00
     -2.723  0.4982E+00  0.4829E+00  0.2060E+00  0.2029E+00
     -2.657  0.4763E+00  0.4923E+00  0.2373E+00  0.2353E+00
     -2.591  0.2335E+00  0.2524E+00  0.2527E+00  0.2519E+00
     -2.525  0.9009E-01  0.9663E-01  0.2587E+00  0.2583E+00
     -2.459  0.7500E-01  0.7202E-01  0.2636E+00  0.2630E+00
     -2.393  0.1851E+00  0.1694E+00  0.2758E+00  0.2742E+00
     -2.327  0.4714E+00  0.4420E+00  0.3069E+00  0.3033E+00
     -2.261  0.7148E+00  0.7096E+00  0.3540E+00  0.3501E+00
     -2.195  0.5190E+00  0.5475E+00  0.3882E+00  0.3862E+00
     -2.130  0.2179E+00  0.2368E+00  0.4025E+00  0.4018E+00
     -2.064  0.1004E+00  0.1036E+00  0.4092E+00  0.4086E+00
     -1.998  0.1489E+00  0.1380E+00  0.4190E+00  0.4177E+00
     -1.932  0.4152E+00  0.3816E+00  0.4463E+00  0.4429E+00
     -1.866  0.9025E+00  0.8629E+00  0.5059E+00  0.4998E+00
     -1.800  0.1030E+01  0.1049E+01  0.5737E+00  0.5690E+00
     -1.734  0.5726E+00  0.6152E+00  0.6115E+00  0.6095E+00
     -1.668  0.2079E+00  0.2277E+00  0.6252E+00  0.6245E+00
     -1.602  0.8929E-01  0.9265E-01  0.6311E+00  0.6306E+00
     -1.537  0.1237E+00  0.1154E+00  0.6392E+00  0.6382E+00
     -1.471  0.3067E+00  0.2859E+00  0.6594E+00  0.6570E+00
     -1.405  0.5233E+00  0.5131E+00  0.6940E+00  0.6910E+00
     -1.339  0.4374E+00  0.4567E+00  0.7228E+00  0.7211E+00
     -1.273  0.1994E+00  0.2158E+00  0.7360E+00  0.7353E+00
     -1.207  0.9018E-01  0.9369E-01  0.7419E+00  0.7414E+00
     -1.141  0.1238E+00  0.1151E+00  0.7501E+00  0.7490E+00
     -1.075  0.3496E+00  0.3201E+00  0.7731E+00  0.7701E+00
     -1.009  0.8228E+00  0.7797E+00  0.8274E+00  0.8216E+00
     -0.944  0.1063E+01  0.1072E+01  0.8975E+00  0.8922E+00
     -0.878  0.6616E+00  0.7052E+00  0.9411E+00  0.9387E+00
     -0.812  0.2637E+00  0.2858E+00  0.9585E+00  0.9575E+00
     -0.746  0.1513E+00  0.1512E+00  0.9684E+00  0.9675E+00
     -0.680  0.2969E+00  0.2726E+00  0.9880E+00  0.9854E+00
     -0.614  0.8136E+00  0.7537E+00  0.1042E+01  0.1035E+01
     -0.548  0.1517E+01  0.1475E+01  0.1142E+01  0.1132E+01
     -0.482  0.1396E+01  0.1448E+01  0.1234E+01  0.1228E+01
     -0.416  0.6598E+00  0.7158E+00  0.1277E+01  0.1275E+01
     -0.351  0.2262E+00  0.2478E+00  0.1292E+01  0.1291E+01
     -0.285  0.1083E+00  0.1104E+00  0.1299E+01  0.1299E+01
     -0.219  0.1738E+00  0.1617E+00  0.1311E+01  0.1309E+01
     -0.153  0.3898E+00  0.3728E+00  0.1337E+01  0.1334E+01
     -0.087  0.5363E+00  0.5373E+00  0.1372E+01  0.1369E+01
     -0.021  0.3544E+00  0.3760E+00  0.1395E+01  0.1394E+01
      0.045  0.1490E+00  0.1605E+00  0.1405E+01  0.1405E+01
      0.111  0.9781E-01  0.9631E-01  0.1412E+01  0.1411E+01
      0.176  0.2133E+00  0.1951E+00  0.1426E+01  0.1424E+01
      0.242  0.6016E+00  0.5562E+00  0.1465E+01  0.1461E+01
      0.308  0.1161E+01  0.1125E+01  0.1542E+01  0.1535E+01
      0.374  0.1114E+01  0.1151E+01  0.1615E+01  0.1611E+01
      0.440  0.5487E+00  0.5926E+00  0.1651E+01  0.1650E+01
      0.506  0.2164E+00  0.2311E+00  0.1666E+01  0.1665E+01
      0.572  0.1931E+00  0.1845E+00  0.1678E+01  0.1677E+01
      0.638  0.4820E+00  0.4421E+00  0.1710E+01  0.1706E+01
      0.704  0.1166E+01  0.1101E+01  0.1787E+01  0.1779E+01
      0.769  0.1607E+01  0.1610E+01  0.1893E+01  0.1885E+01
      0.835  0.1060E+01  0.1126E+01  0.1963E+01  0.1959E+01
      0.901  0.4168E+00  0.4550E+00  0.1990E+01  0.1989E+01
      0.967  0.1713E+00  0.1796E+00  0.2002E+01  0.2001E+01
      1.033  0.2103E+00  0.1972E+00  0.2015E+01  0.2014E+01
      1.099  0.5305E+00  0.4920E+00  0.2050E+01  0.2046E+01
      1.165  0.1001E+01  0.9714E+00  0.2117E+01  0.2110E+01
      1.231  0.9486E+00  0.9808E+00  0.2179E+01  0.2175E+01
      1.297  0.4656E+00  0.5025E+00  0.2210E+01  0.2208E+01
      1.362  0.1941E+00  0.2052E+00  0.2223E+01  0.2222E+01
      1.428  0.2060E+00  0.1946E+00  0.2236E+01  0.2235E+01
      1.494  0.5381E+00  0.4943E+00  0.2272E+01  0.2267E+01
      1.560  0.1243E+01  0.1183E+01  0.2354E+01  0.2345E+01
      1.626  0.1587E+01  0.1601E+01  0.2458E+01  0.2451E+01
      1.692  0.9802E+00  0.1045E+01  0.2523E+01  0.2519E+01
      1.758  0.3837E+00  0.4169E+00  0.2548E+01  0.2547E+01
      1.824  0.1975E+00  0.2000E+00  0.2561E+01  0.2560E+01
      1.890  0.3433E+00  0.3173E+00  0.2584E+01  0.2581E+01
      1.955  0.8943E+00  0.8327E+00  0.2643E+01  0.2636E+01
      2.021  0.1557E+01  0.1525E+01  0.2746E+01  0.2737E+01
      2.087  0.1327E+01  0.1383E+01  0.2833E+01  0.2828E+01
      2.153  0.6021E+00  0.6532E+00  0.2873E+01  0.2871E+01
      2.219  0.2268E+00  0.2431E+00  0.2888E+01  0.2887E+01
      2.285  0.1905E+00  0.1832E+00  0.2900E+01  0.2899E+01
      2.351  0.4411E+00  0.4082E+00  0.2929E+01  0.2926E+01
      2.417  0.9200E+00  0.8822E+00  0.2990E+01  0.2984E+01
      2.483  0.1020E+01  0.1041E+01  0.3057E+01  0.3053E+01
      2.548  0.5569E+00  0.5979E+00  0.3094E+01  0.3092E+01
      2.614  0.2120E+00  0.2293E+00  0.3108E+01  0.3107E+01
      2.680  0.1329E+00  0.1314E+00  0.3117E+01  0.3116E+01
      2.746  0.2708E+00  0.2501E+00  0.3135E+01  0.3132E+01
      2.812  0.6529E+00  0.6144E+00  0.3178E+01  0.3173E+01
      2.878  0.9984E+00  0.9857E+00  0.3244E+01  0.3238E+01
      2.944  0.8255E+00  0.8580E+00  0.3298E+01  0.3295E+01
      3.010  0.4143E+00  0.4428E+00  0.3325E+01  0.3324E+01
      3.076  0.2557E+00  0.2557E+00  0.3342E+01  0.3341E+01
      3.141  0.4903E+00  0.4519E+00  0.3374E+01  0.3370E+01
      3.207  0.1316E+01  0.1223E+01  0.3461E+01  0.3451E+01
      3.273  0.2432E+01  0.2364E+01  0.3621E+01  0.3607E+01
      3.339  0.2330E+01  0.2400E+01  0.3775E+01  0.3765E+01
      3.405  0.1188E+01  0.1279E+01  0.3853E+01  0.3849E+01
      3.471  0.4417E+00  0.4788E+00  0.3882E+01  0.3881E+01
      3.537  0.2647E+00  0.2631E+00  0.3900E+01  0.3898E+01
      3.603  0.5036E+00  0.4679E+00  0.3933E+01  0.3929E+01
      3.669  0.1109E+01  0.1052E+01  0.4006E+01  0.3998E+01
      3.734  0.1524E+01  0.1518E+01  0.4107E+01  0.4099E+01
      3.800  0.1110E+01  0.1167E+01  0.4180E+01  0.4176E+01
      3.866  0.4917E+00  0.5308E+00  0.4212E+01  0.4210E+01
      3.932  0.2608E+00  0.2649E+00  0.4229E+01  0.4228E+01
      3.998  0.4219E+00  0.3943E+00  0.4257E+01  0.4254E+01
      4.064  0.9244E+00  0.8788E+00  0.4318E+01  0.4312E+01
      4.130  0.1214E+01  0.1218E+01  0.4398E+01  0.4392E+01
      4.196  0.8115E+00  0.8572E+00  0.4452E+01  0.4449E+01
      4.262  0.3439E+00  0.3712E+00  0.4474E+01  0.4473E+01
      4.327  0.1812E+00  0.1835E+00  0.4486E+01  0.4485E+01
      4.393  0.3163E+00  0.2918E+00  0.4507E+01  0.4505E+01
      4.459  0.8805E+00  0.8131E+00  0.4565E+01  0.4558E+01
      4.525  0.1811E+01  0.1741E+01  0.4685E+01  0.4673E+01
      4.591  0.1990E+01  0.2029E+01  0.4816E+01  0.4807E+01
      4.657  0.1118E+01  0.1198E+01  0.4890E+01  0.4886E+01
      4.723  0.4077E+00  0.4468E+00  0.4916E+01  0.4915E+01
      4.789  0.1557E+00  0.1647E+00  0.4927E+01  0.4926E+01
      4.855  0.1648E+00  0.1565E+00  0.4938E+01  0.4936E+01
      4.920  0.3568E+00  0.3387E+00  0.4961E+01  0.4959E+01
      4.986  0.5386E+00  0.5341E+00  0.4997E+01  0.4994E+01
      5.052  0.4030E+00  0.4229E+00  0.5023E+01  0.5022E+01
      5.118  0.2063E+00  0.2162E+00  0.5037E+01  0.5036E+01
      5.184  0.2239E+00  0.2119E+00  0.5052E+01  0.5050E+01
      5.250  0.5932E+00  0.5441E+00  0.5091E+01  0.5086E+01
      5.316  0.1479E+01  0.1393E+01  0.5188E+01  0.5178E+01
      5.382  0.2222E+01  0.2200E+01  0.5335E+01  0.5323E+01
      5.448  0.1856E+01  0.1911E+01  0.5457E+01  0.5449E+01
      5.513  0.1182E+01  0.1230E+01  0.5535E+01  0.5530E+01
      5.579  0.6799E+00  0.7147E+00  0.5580E+01  0.5577E+01
      5.645  0.5109E+00  0.5064E+00  0.5613E+01  0.5610E+01
      5.711  0.9087E+00  0.8543E+00  0.5673E+01  0.5666E+01
      5.777  0.1654E+01  0.1599E+01  0.5782E+01  0.5772E+01
      5.843  0.1925E+01  0.1925E+01  0.5909E+01  0.5899E+01
      5.909  0.1716E+01  0.1740E+01  0.6023E+01  0.6014E+01
      5.975  0.1186E+01  0.1246E+01  0.6101E+01  0.6096E+01
      6.041  0.5527E+00  0.5961E+00  0.6137E+01  0.6135E+01
      6.106  0.3037E+00  0.3091E+00  0.6157E+01  0.6155E+01
      6.172  0.4296E+00  0.4084E+00  0.6186E+01  0.6182E+01
      6.238  0.6852E+00  0.6680E+00  0.6231E+01  0.6227E+01
      6.304  0.7620E+00  0.7618E+00  0.6281E+01  0.6277E+01
      6.370  0.7302E+00  0.7386E+00  0.6329E+01  0.6326E+01
      6.436  0.5499E+00  0.5672E+00  0.6366E+01  0.6363E+01
      6.502  0.5481E+00  0.5330E+00  0.6402E+01  0.6398E+01
      6.568  0.9666E+00  0.9239E+00  0.6465E+01  0.6459E+01
      6.634  0.1309E+01  0.1298E+01  0.6552E+01  0.6545E+01
      6.699  0.1293E+01  0.1289E+01  0.6637E+01  0.6629E+01
      6.765  0.1312E+01  0.1317E+01  0.6724E+01  0.6716E+01
      6.831  0.9717E+00  0.1015E+01  0.6788E+01  0.6783E+01
      6.897  0.6318E+00  0.6439E+00  0.6829E+01  0.6826E+01
      6.963  0.8340E+00  0.7993E+00  0.6884E+01  0.6878E+01
      7.029  0.1247E+01  0.1224E+01  0.6966E+01  0.6959E+01
      7.095  0.1267E+01  0.1270E+01  0.7050E+01  0.7043E+01
      7.161  0.1296E+01  0.1286E+01  0.7135E+01  0.7128E+01
      7.227  0.1186E+01  0.1215E+01  0.7214E+01  0.7208E+01
      7.292  0.8386E+00  0.8597E+00  0.7269E+01  0.7264E+01
      7.358  0.9956E+00  0.9601E+00  0.7334E+01  0.7328E+01
      7.424  0.1506E+01  0.1476E+01  0.7434E+01  0.7425E+01
      7.490  0.1378E+01  0.1421E+01  0.7525E+01  0.7519E+01
      7.556  0.7049E+00  0.7581E+00  0.7571E+01  0.7569E+01
      7.622  0.2628E+00  0.2848E+00  0.7589E+01  0.7588E+01
      7.688  0.1538E+00  0.1533E+00  0.7599E+01  0.7598E+01
      7.754  0.2808E+00  0.2617E+00  0.7617E+01  0.7615E+01
      7.820  0.5844E+00  0.5566E+00  0.7656E+01  0.7652E+01
      7.885  0.8413E+00  0.8194E+00  0.7711E+01  0.7706E+01
      7.951  0.1210E+01  0.1159E+01  0.7791E+01  0.7782E+01
      8.017  0.1703E+01  0.1680E+01  0.7903E+01  0.7893E+01
      8.083  0.1434E+01  0.1489E+01  0.7998E+01  0.7991E+01
      8.149  0.1003E+01  0.1020E+01  0.8064E+01  0.8058E+01
      8.215  0.1223E+01  0.1190E+01  0.8144E+01  0.8137E+01
      8.281  0.1565E+01  0.1545E+01  0.8248E+01  0.8238E+01
      8.347  0.1750E+01  0.1727E+01  0.8363E+01  0.8352E+01
      8.413  0.1773E+01  0.1796E+01  0.8480E+01  0.8471E+01
      8.478  0.1116E+01  0.1189E+01  0.8554E+01  0.8549E+01
      8.544  0.4553E+00  0.4960E+00  0.8584E+01  0.8582E+01
      8.610  0.2334E+00  0.2377E+00  0.8599E+01  0.8598E+01
      8.676  0.3757E+00  0.3490E+00  0.8624E+01  0.8621E+01
      8.742  0.8314E+00  0.7866E+00  0.8679E+01  0.8673E+01
      8.808  0.1091E+01  0.1096E+01  0.8751E+01  0.8745E+01
      8.874  0.7596E+00  0.7963E+00  0.8801E+01  0.8797E+01
      8.940  0.5401E+00  0.5423E+00  0.8836E+01  0.8833E+01
      9.006  0.7148E+00  0.6933E+00  0.8883E+01  0.8879E+01
      9.071  0.9331E+00  0.9155E+00  0.8945E+01  0.8939E+01
      9.137  0.1226E+01  0.1185E+01  0.9026E+01  0.9017E+01
      9.203  0.1695E+01  0.1663E+01  0.9138E+01  0.9127E+01
      9.269  0.1584E+01  0.1626E+01  0.9242E+01  0.9234E+01
      9.335  0.1143E+01  0.1165E+01  0.9317E+01  0.9311E+01
      9.401  0.1399E+01  0.1350E+01  0.9409E+01  0.9400E+01
      9.467  0.2039E+01  0.1994E+01  0.9544E+01  0.9531E+01
      9.533  0.2342E+01  0.2314E+01  0.9698E+01  0.9684E+01
      9.599  0.2542E+01  0.2537E+01  0.9866E+01  0.9851E+01
      9.664  0.1941E+01  0.2034E+01  0.9994E+01  0.9985E+01
      9.730  0.8893E+00  0.9673E+00  0.1005E+02  0.1005E+02
      9.796  0.3954E+00  0.4140E+00  0.1008E+02  0.1008E+02
      9.862  0.4937E+00  0.4607E+00  0.1011E+02  0.1011E+02
      9.928  0.1205E+01  0.1117E+01  0.1019E+02  0.1018E+02
      9.994  0.2090E+01  0.2041E+01  0.1033E+02  0.1032E+02
     10.060  0.1822E+01  0.1897E+01  0.1045E+02  0.1044E+02
     10.126  0.9695E+00  0.1030E+01  0.1051E+02  0.1051E+02
     10.192  0.6800E+00  0.6868E+00  0.1056E+02  0.1055E+02
     10.257  0.6560E+00  0.6633E+00  0.1060E+02  0.1060E+02
     10.323  0.5218E+00  0.5294E+00  0.1063E+02  0.1063E+02
     10.389  0.5376E+00  0.5295E+00  0.1067E+02  0.1067E+02
     10.455  0.5728E+00  0.5809E+00  0.1071E+02  0.1071E+02
     10.521  0.3616E+00  0.3837E+00  0.1073E+02  0.1073E+02
     10.587  0.2253E+00  0.2288E+00  0.1075E+02  0.1075E+02
     10.653  0.3883E+00  0.3626E+00  0.1077E+02  0.1077E+02
     10.719  0.9764E+00  0.9174E+00  0.1084E+02  0.1083E+02
     10.785  0.1620E+01  0.1592E+01  0.1094E+02  0.1094E+02
     10.850  0.1399E+01  0.1439E+01  0.1104E+02  0.1103E+02
     10.916  0.8604E+00  0.8888E+00  0.1109E+02  0.1109E+02
     10.982  0.5803E+00  0.5972E+00  0.1113E+02  0.1113E+02
     11.048  0.4633E+00  0.4622E+00  0.1116E+02  0.1116E+02
     11.114  0.7007E+00  0.6627E+00  0.1121E+02  0.1120E+02
     11.180  0.1078E+01  0.1058E+01  0.1128E+02  0.1127E+02
     11.246  0.8951E+00  0.9235E+00  0.1134E+02  0.1133E+02
     11.312  0.4817E+00  0.4690E+00  0.1137E+02  0.1136E+02
     11.378  0.4188E+00  0.3155E+00  0.1140E+02  0.1138E+02
     11.443  0.5550E+00  0.4639E+00  0.1143E+02  0.1142E+02
     11.509  0.4457E+00  0.5367E+00  0.1146E+02  0.1145E+02
     11.575  0.1943E+00  0.3134E+00  0.1148E+02  0.1147E+02
     11.641  0.6991E-01  0.1206E+00  0.1148E+02  0.1148E+02
     11.707  0.5143E-01  0.6360E-01  0.1148E+02  0.1148E+02
     11.773  0.1273E+00  0.1189E+00  0.1149E+02  0.1149E+02
     11.839  0.3887E+00  0.3563E+00  0.1152E+02  0.1151E+02
     11.905  0.8851E+00  0.8403E+00  0.1158E+02  0.1157E+02
     11.970  0.1081E+01  0.1093E+01  0.1165E+02  0.1164E+02
     12.036  0.7044E+00  0.7422E+00  0.1169E+02  0.1169E+02
     12.102  0.3891E+00  0.4088E+00  0.1172E+02  0.1172E+02
     12.168  0.2050E+00  0.2201E+00  0.1173E+02  0.1173E+02
     12.234  0.7886E-01  0.8745E-01  0.1174E+02  0.1174E+02
     12.300  0.2397E-01  0.2700E-01  0.1174E+02  0.1174E+02
     12.366  0.5423E-02  0.6146E-02  0.1174E+02  0.1174E+02
     12.432  0.1470E-02  0.1669E-02  0.1174E+02  0.1174E+02
     12.498  0.0000E+00  0.0000E+00  0.1174E+02  0.1174E+02
     12.563  0.0000E+00  0.0000E+00  0.1174E+02  0.1174E+02
     12.629  0.1902E-03  0.2080E-03  0.1174E+02  0.1174E+02
     12.695  0.5201E-03  0.5686E-03  0.1174E+02  0.1174E+02
     12.761  0.1940E-02  0.2120E-02  0.1174E+02  0.1174E+02
     12.827  0.7205E-02  0.7873E-02  0.1174E+02  0.1174E+02
     12.893  0.2638E-01  0.2877E-01  0.1174E+02  0.1174E+02
     12.959  0.9158E-01  0.9924E-01  0.1175E+02  0.1175E+02
     13.025  0.2676E+00  0.2843E+00  0.1177E+02  0.1177E+02
     13.091  0.5044E+00  0.5141E+00  0.1180E+02  0.1180E+02
     13.156  0.4667E+00  0.4519E+00  0.1183E+02  0.1183E+02
     13.222  0.2204E+00  0.2059E+00  0.1185E+02  0.1185E+02
     13.288  0.7160E-01  0.6591E-01  0.1185E+02  0.1185E+02
     13.354  0.2045E-01  0.1858E-01  0.1185E+02  0.1185E+02
     13.420  0.5967E-02  0.5595E-02  0.1185E+02  0.1185E+02
     13.486  0.1687E-02  0.1500E-02  0.1185E+02  0.1185E+02
     13.552  0.6273E-02  0.5578E-02  0.1185E+02  0.1185E+02
     13.618  0.2302E-01  0.2051E-01  0.1185E+02  0.1185E+02
     13.684  0.8068E-01  0.7237E-01  0.1186E+02  0.1186E+02
     13.749  0.2425E+00  0.2223E+00  0.1188E+02  0.1187E+02
     13.815  0.4863E+00  0.4686E+00  0.1191E+02  0.1190E+02
     13.881  0.4877E+00  0.5031E+00  0.1194E+02  0.1194E+02
     13.947  0.2444E+00  0.2656E+00  0.1196E+02  0.1195E+02
     14.013  0.8180E-01  0.9099E-01  0.1196E+02  0.1196E+02
     14.079  0.2472E-01  0.2739E-01  0.1196E+02  0.1196E+02
     14.145  0.1179E-01  0.1194E-01  0.1196E+02  0.1196E+02
     14.211  0.2116E-01  0.1921E-01  0.1196E+02  0.1196E+02
     14.277  0.6200E-01  0.5605E-01  0.1197E+02  0.1197E+02
     14.342  0.1429E+00  0.1350E+00  0.1198E+02  0.1198E+02
     14.408  0.1751E+00  0.1775E+00  0.1199E+02  0.1199E+02
     14.474  0.1031E+00  0.1114E+00  0.1200E+02  0.1200E+02
     14.540  0.3713E-01  0.4142E-01  0.1200E+02  0.1200E+02
     14.606  0.1088E-01  0.1227E-01  0.1200E+02  0.1200E+02
     14.672  0.2986E-02  0.3380E-02  0.1200E+02  0.1200E+02
     14.738  0.8048E-03  0.9118E-03  0.1200E+02  0.1200E+02
     14.804  0.0000E+00  0.0000E+00  0.1200E+02  0.1200E+02
     14.870  0.0000E+00  0.0000E+00  0.1200E+02  0.1200E+02
     14.935  0.0000E+00  0.0000E+00  0.1200E+02  0.1200E+02
     15.001  0.0000E+00  0.0000E+00  0.1200E+02  0.1200E+02
     15.067  0.0000E+00  0.0000E+00  0.1200E+02  0.1200E+02
     15.133  0.0000E+00  0.0000E+00  0.1200E+02  0.1200E+02
     15.199  0.0000E+00  0.0000E+00  0.1200E+02  0.1200E+02
     15.265  0.0000E+00  0.0000E+00  0.1200E+02  0.1200E+02
     15.26491090     -4.50157176  301      5.89739591      1.00000000
     -4.502  0.0000E+00  0.0000E+00  0.0000E+00  0.0000E+00  0.0000E+00  0.0000E+00  0.0000E+00  0.0000E+00  0.0000E+00  0.0000E+00  0.0000E+00  0.0000E+00  0.0000E+00  0.0000E+00  0.0000E+00  0.0000E+00  0.0000E+00  0.0000E+00
     -4.436  0.0000E+00  0.0000E+00  0.0000E+00  0.0000E+00  0.0000E+00  0.0000E+00  0.0000E+00  0.0000E+00  0.0000E+00  0.0000E+00  0.0000E+00  0.0000E+00  0.0000E+00  0.0000E+00  0.0000E+00  0.0000E+00  0.0000E+00  0.0000E+00
     -4.370  0.0000E+00  0.0000E+00  0.0000E+00  0.0000E+00  0.0000E+00  0.0000E+00  0.0000E+00  0.0000E+00  0.0000E+00  0.0000E+00  0.0000E+00  0.0000E+00  0.0000E+00  0.0000E+00  0.0000E+00  0.0000E+00  0.0000E+00  0.0000E+00
     -4.304  0.0000E+00  0.0000E+00  0.0000E+00  0.0000E+00  0.0000E+00  0.0000E+00  0.0000E+00  0.0000E+00  0.0000E+00  0.0000E+00  0.0000E+00  0.0000E+00  0.0000E+00  0.0000E+00  0.0000E+00  0.0000E+00  0.0000E+00  0.0000E+00
     -4.238  0.0000E+00  0.0000E+00  0.0000E+00  0.0000E+00  0.0000E+00  0.0000E+00  0.0000E+00  0.0000E+00  0.0000E+00  0.0000E+00  0.0000E+00  0.0000E+00  0.0000E+00  0.0000E+00  0.0000E+00  0.0000E+00  0.0000E+00  0.0000E+00
     -4.172  0.0000E+00  0.0000E+00  0.0000E+00  0.0000E+00  0.0000E+00  0.0000E+00  0.0000E+00  0.0000E+00  0.0000E+00  0.0000E+00  0.0000E+00  0.0000E+00  0.0000E+00  0.0000E+00  0.0000E+00  0.0000E+00  0.0000E+00  0.0000E+00
     -4.106  0.0000E+00  0.0000E+00  0.0000E+00  0.0000E+00  0.0000E+00  0.0000E+00  0.0000E+00  0.0000E+00  0.0000E+00  0.0000E+00  0.0000E+00  0.0000E+00  0.0000E+00  0.0000E+00  0.0000E+00  0.0000E+00  0.0000E+00  0.0000E+00
     -4.040  0.5352E-05  0.4786E-05  0.2116E-07  0.1893E-07  0.2116E-07  0.1893E-07  0.2116E-07  0.1893E-07  0.0000E+00  0.0000E+00  0.0000E+00  0.0000E+00  0.0000E+00  0.0000E+00  0.0000E+00  0.0000E+00  0.0000E+00  0.0000E+00
     -3.974  0.1463E-04  0.1308E-04  0.5785E-07  0.5174E-07  0.5785E-07  0.5174E-07  0.5785E-07  0.5174E-07  0.0000E+00  0.0000E+00  0.0000E+00  0.0000E+00  0.0000E+00  0.0000E+00  0.0000E+00  0.0000E+00  0.0000E+00  0.0000E+00
     -3.909  0.5453E-04  0.4877E-04  0.2156E-06  0.1929E-06  0.2156E-06  0.1929E-06  0.2156E-06  0.1929E-06  0.0000E+00  0.0000E+00  0.0000E+00  0.0000E+00  0.0000E+00  0.0000E+00  0.0000E+00  0.0000E+00  0.0000E+00  0.0000E+00
     -3.843  0.2021E-03  0.1809E-03  0.7992E-06  0.7156E-06  0.7992E-06  0.7156E-06  0.7992E-06  0.7156E-06  0.0000E+00  0.0000E+00  0.0000E+00  0.0000E+00  0.0000E+00  0.0000E+00  0.0000E+00  0.0000E+00  0.0000E+00  0.0000E+00
     -3.777  0.7338E-03  0.6588E-03  0.2902E-05  0.2606E-05  0.2902E-05  0.2606E-05  0.2902E-05  0.2606E-05  0.0000E+00  0.0000E+00  0.0000E+00  0.0000E+00  0.0000E+00  0.0000E+00  0.0000E+00  0.0000E+00  0.0000E+00  0.0000E+00
     -3.711  0.2477E-02  0.2246E-02  0.9794E-05  0.8885E-05  0.9794E-05  0.8885E-05  0.9794E-05  0.8885E-05  0.0000E+00  0.0000E+00  0.0000E+00  0.0000E+00  0.0000E+00  0.0000E+00  0.0000E+00  0.0000E+00  0.0000E+00  0.0000E+00
     -3.645  0.6659E-02  0.6218E-02  0.2633E-04  0.2459E-04  0.2633E-04  0.2459E-04  0.2633E-04  0.2459E-04  0.0000E+00  0.0000E+00  0.0000E+00  0.0000E+00  0.0000E+00  0.0000E+00  0.0000E+00  0.0000E+00  0.0000E+00  0.0000E+00
     -3.579  0.1064E-01  0.1051E-01  0.4233E-04  0.4179E-04  0.4233E-04  0.4179E-04  0.4233E-04  0.4179E-04  0.0000E+00  0.0000E+00  0.0000E+00  0.0000E+00  0.0000E+00  0.0000E+00  0.0000E+00  0.0000E+00  0.0000E+00  0.0000E+00
     -3.513  0.8142E-02  0.8552E-02  0.3292E-04  0.3447E-04  0.3292E-04  0.3447E-04  0.3292E-04  0.3447E-04  0.0000E+00  0.0000E+00  0.0000E+00  0.0000E+00  0.0000E+00  0.0000E+00  0.0000E+00  0.0000E+00  0.0000E+00  0.0000E+00
     -3.447  0.3600E-02  0.3888E-02  0.1692E-04  0.1778E-04  0.1692E-04  0.1778E-04  0.1692E-04  0.1778E-04  0.0000E+00  0.0000E+00  0.0000E+00  0.0000E+00  0.0000E+00  0.0000E+00  0.0000E+00  0.0000E+00  0.0000E+00  0.0000E+00
     -3.381  0.1949E-02  0.1968E-02  0.1762E-04  0.1666E-04  0.1762E-04  0.1666E-04  0.1762E-04  0.1666E-04  0.0000E+00  0.0000E+00  0.0000E+00  0.0000E+00  0.0000E+00  0.0000E+00  0.0000E+00  0.0000E+00  0.0000E+00  0.0000E+00
     -3.316  0.3560E-02  0.3265E-02  0.4951E-04  0.4480E-04  0.4951E-04  0.4480E-04  0.4951E-04  0.4480E-04  0.0000E+00  0.0000E+00  0.0000E+00  0.0000E+00  0.0000E+00  0.0000E+00  0.0000E+00  0.0000E+00  0.0000E+00  0.0000E+00
     -3.250  0.1056E-01  0.9661E-02  0.1553E-03  0.1419E-03  0.1553E-03  0.1419E-03  0.1553E-03  0.1419E-03  0.0000E+00  0.0000E+00  0.0000E+00  0.0000E+00  0.0000E+00  0.0000E+00  0.0000E+00  0.0000E+00  0.0000E+00  0.0000E+00
     -3.184  0.2450E-01  0.2326E-01  0.3623E-03  0.3440E-03  0.3623E-03  0.3440E-03  0.3623E-03  0.3440E-03  0.0000E+00  0.0000E+00  0.0000E+00  0.0000E+00  0.0000E+00  0.0000E+00  0.0000E+00  0.0000E+00  0.0000E+00  0.0000E+00
     -3.118  0.3068E-01  0.3099E-01  0.4538E-03  0.4584E-03  0.4538E-03  0.4584E-03  0.4538E-03  0.4584E-03  0.0000E+00  0.0000E+00  0.0000E+00  0.0000E+00  0.0000E+00  0.0000E+00  0.0000E+00  0.0000E+00  0.0000E+00  0.0000E+00
     -3.052  0.1850E-01  0.1976E-01  0.2746E-03  0.2932E-03  0.2746E-03  0.2932E-03  0.2746E-03  0.2932E-03  0.0000E+00  0.0000E+00  0.0000E+00  0.0000E+00  0.0000E+00  0.0000E+00  0.0000E+00  0.0000E+00  0.0000E+00  0.0000E+00
     -2.986  0.7071E-02  0.7707E-02  0.1088E-03  0.1178E-03  0.1088E-03  0.1178E-03  0.1088E-03  0.1178E-03  0.0000E+00  0.0000E+00  0.0000E+00  0.0000E+00  0.0000E+00  0.0000E+00  0.0000E+00  0.0000E+00  0.0000E+00  0.0000E+00
     -2.920  0.3376E-02  0.3451E-02  0.6551E-04  0.6504E-04  0.6551E-04  0.6504E-04  0.6551E-04  0.6504E-04  0.0000E+00  0.0000E+00  0.0000E+00  0.0000E+00  0.0000E+00  0.0000E+00  0.0000E+00  0.0000E+00  0.0000E+00  0.0000E+00
     -2.854  0.5457E-02  0.5043E-02  0.1351E-03  0.1237E-03  0.1351E-03  0.1237E-03  0.1351E-03  0.1237E-03  0.0000E+00  0.0000E+00  0.0000E+00  0.0000E+00  0.0000E+00  0.0000E+00  0.0000E+00  0.0000E+00  0.0000E+00  0.0000E+00
     -2.788  0.1468E-01  0.1358E-01  0.3778E-03  0.3492E-03  0.3778E-03  0.3492E-03  0.3778E-03  0.3492E-03  0.0000E+00  0.0000E+00  0.0000E+00  0.0000E+00  0.0000E+00  0.0000E+00  0.0000E+00  0.0000E+00  0.0000E+00  0.0000E+00
     -2.723  0.2810E-01  0.2722E-01  0.7265E-03  0.7041E-03  0.7265E-03  0.7041E-03  0.7265E-03  0.7041E-03  0.0000E+00  0.0000E+00  0.0000E+00  0.0000E+00  0.0000E+00  0.0000E+00  0.0000E+00  0.0000E+00  0.0000E+00  0.0000E+00
     -2.657  0.2686E-01  0.2775E-01  0.6950E-03  0.7181E-03  0.6950E-03  0.7181E-03  0.6950E-03  0.7181E-03  0.0000E+00  0.0000E+00  0.0000E+00  0.0000E+00  0.0000E+00  0.0000E+00  0.0000E+00  0.0000E+00  0.0000E+00  0.0000E+00
     -2.591  0.1316E-01  0.1422E-01  0.3428E-03  0.3701E-03  0.3428E-03  0.3701E-03  0.3428E-03  0.3701E-03  0.0000E+00  0.0000E+00  0.0000E+00  0.0000E+00  0.0000E+00  0.0000E+00  0.0000E+00  0.0000E+00  0.0000E+00  0.0000E+00
     -2.525  0.5056E-02  0.5425E-02  0.1403E-03  0.1489E-03  0.1403E-03  0.1489E-03  0.1403E-03  0.1489E-03  0.0000E+00  0.0000E+00  0.0000E+00  0.0000E+00  0.0000E+00  0.0000E+00  0.0000E+00  0.0000E+00  0.0000E+00  0.0000E+00
     -2.459  0.4138E-02  0.3977E-02  0.1418E-03  0.1341E-03  0.1418E-03  0.1341E-03  0.1418E-03  0.1341E-03  0.0000E+00  0.0000E+00  0.0000E+00  0.0000E+00  0.0000E+00  0.0000E+00  0.0000E+00  0.0000E+00  0.0000E+00  0.0000E+00
     -2.393  0.1013E-01  0.9270E-02  0.3785E-03  0.3456E-03  0.3785E-03  0.3456E-03  0.3785E-03  0.3456E-03  0.0000E+00  0.0000E+00  0.0000E+00  0.0000E+00  0.0000E+00  0.0000E+00  0.0000E+00  0.0000E+00  0.0000E+00  0.0000E+00
     -2.327  0.2578E-01  0.2416E-01  0.9717E-03  0.9108E-03  0.9717E-03  0.9108E-03  0.9717E-03  0.9108E-03  0.0000E+00  0.0000E+00  0.0000E+00  0.0000E+00  0.0000E+00  0.0000E+00  0.0000E+00  0.0000E+00  0.0000E+00  0.0000E+00
     -2.261  0.3908E-01  0.3878E-01  0.1475E-02  0.1464E-02  0.1475E-02  0.1464E-02  0.1475E-02  0.1464E-02  0.0000E+00  0.0000E+00  0.0000E+00  0.0000E+00  0.0000E+00  0.0000E+00  0.0000E+00  0.0000E+00  0.0000E+00  0.0000E+00
     -2.195  0.2837E-01  0.2992E-01  0.1072E-02  0.1131E-02  0.1072E-02  0.1131E-02  0.1072E-02  0.1131E-02  0.0000E+00  0.0000E+00  0.0000E+00  0.0000E+00  0.0000E+00  0.0000E+00  0.0000E+00  0.0000E+00  0.0000E+00  0.0000E+00
     -2.130  0.1190E-01  0.1293E-01  0.4553E-03  0.4935E-03  0.4553E-03  0.4935E-03  0.4553E-03  0.4935E-03  0.0000E+00  0.0000E+00  0.0000E+00  0.0000E+00  0.0000E+00  0.0000E+00  0.0000E+00  0.0000E+00  0.0000E+00  0.0000E+00
     -2.064  0.5430E-02  0.5609E-02  0.2281E-03  0.2325E-03  0.2281E-03  0.2325E-03  0.2281E-03  0.2325E-03  0.0000E+00  0.0000E+00  0.0000E+00  0.0000E+00  0.0000E+00  0.0000E+00  0.0000E+00  0.0000E+00  0.0000E+00  0.0000E+00
     -1.998  0.7931E-02  0.7351E-02  0.3815E-03  0.3515E-03  0.3815E-03  0.3515E-03  0.3815E-03  0.3515E-03  0.0000E+00  0.0000E+00  0.0000E+00  0.0000E+00  0.0000E+00  0.0000E+00  0.0000E+00  0.0000E+00  0.0000E+00  0.0000E+00
     -1.932  0.2204E-01  0.2025E-01  0.1089E-02  0.1000E-02  0.1089E-02  0.1000E-02  0.1089E-02  0.1000E-02  0.0000E+00  0.0000E+00  0.0000E+00  0.0000E+00  0.0000E+00  0.0000E+00  0.0000E+00  0.0000E+00  0.0000E+00  0.0000E+00
     -1.866  0.4790E-01  0.4578E-01  0.2373E-02  0.2268E-02  0.2373E-02  0.2268E-02  0.2373E-02  0.2268E-02  0.0000E+00  0.0000E+00  0.0000E+00  0.0000E+00  0.0000E+00  0.0000E+00  0.0000E+00  0.0000E+00  0.0000E+00  0.0000E+00
     -1.800  0.5465E-01  0.5564E-01  0.2707E-02  0.2757E-02  0.2707E-02  0.2757E-02  0.2707E-02  0.2757E-02  0.0000E+00  0.0000E+00  0.0000E+00  0.0000E+00  0.0000E+00  0.0000E+00  0.0000E+00  0.0000E+00  0.0000E+00  0.0000E+00
     -1.734  0.3039E-01  0.3263E-01  0.1507E-02  0.1618E-02  0.1507E-02  0.1618E-02  0.1507E-02  0.1618E-02  0.0000E+00  0.0000E+00  0.0000E+00  0.0000E+00  0.0000E+00  0.0000E+00  0.0000E+00  0.0000E+00  0.0000E+00  0.0000E+00
     -1.668  0.1102E-01  0.1207E-01  0.5510E-03  0.6025E-03  0.5510E-03  0.6025E-03  0.5510E-03  0.6025E-03  0.0000E+00  0.0000E+00  0.0000E+00  0.0000E+00  0.0000E+00  0.0000E+00  0.0000E+00  0.0000E+00  0.0000E+00  0.0000E+00
     -1.602  0.4693E-02  0.4874E-02  0.2511E-03  0.2582E-03  0.2511E-03  0.2582E-03  0.2511E-03  0.2582E-03  0.0000E+00  0.0000E+00  0.0000E+00  0.0000E+00  0.0000E+00  0.0000E+00  0.0000E+00  0.0000E+00  0.0000E+00  0.0000E+00
     -1.537  0.6410E-02  0.5980E-02  0.3813E-03  0.3540E-03  0.3813E-03  0.3540E-03  0.3813E-03  0.3540E-03  0.0000E+00  0.0000E+00  0.0000E+00  0.0000E+00  0.0000E+00  0.0000E+00  0.0000E+00  0.0000E+00  0.0000E+00  0.0000E+00
     -1.471  0.1584E-01  0.1476E-01  0.9631E-03  0.8973E-03  0.9631E-03  0.8973E-03  0.9631E-03  0.8973E-03  0.0000E+00  0.0000E+00  0.0000E+00  0.0000E+00  0.0000E+00  0.0000E+00  0.0000E+00  0.0000E+00  0.0000E+00  0.0000E+00
     -1.405  0.2701E-01  0.2647E-01  0.1648E-02  0.1615E-02  0.1648E-02  0.1615E-02  0.1648E-02  0.1615E-02  0.0000E+00  0.0000E+00  0.0000E+00  0.0000E+00  0.0000E+00  0.0000E+00  0.0000E+00  0.0000E+00  0.0000E+00  0.0000E+00
     -1.339  0.2258E-01  0.2356E-01  0.1378E-02  0.1439E-02  0.1378E-02  0.1439E-02  0.1378E-02  0.1439E-02  0.0000E+00  0.0000E+00  0.0000E+00  0.0000E+00  0.0000E+00  0.0000E+00  0.0000E+00  0.0000E+00  0.0000E+00  0.0000E+00
     -1.273  0.1028E-01  0.1112E-01  0.6328E-03  0.6838E-03  0.6328E-03  0.6838E-03  0.6328E-03  0.6838E-03  0.0000E+00  0.0000E+00  0.0000E+00  0.0000E+00  0.0000E+00  0.0000E+00  0.0000E+00  0.0000E+00  0.0000E+00  0.0000E+00
     -1.207  0.4599E-02  0.4783E-02  0.3026E-03  0.3117E-03  0.3026E-03  0.3117E-03  0.3026E-03  0.3117E-03  0.0000E+00  0.0000E+00  0.0000E+00  0.0000E+00  0.0000E+00  0.0000E+00  0.0000E+00  0.0000E+00  0.0000E+00  0.0000E+00