   4   4   1   0
  0.1962919E+02  0.4282073E-09  0.4282073E-09  0.4282073E-09  0.5000000E-15
  1.000000000000000E-004
  CAR 
 unknown system                          
     15.71797532     -4.43666151  301      6.16772818      1.00000000
     -4.437  0.0000E+00  0.0000E+00  0.0000E+00  0.0000E+00
     -4.369  0.0000E+00  0.0000E+00  0.0000E+00  0.0000E+00
     -4.302  0.0000E+00  0.0000E+00  0.0000E+00  0.0000E+00
     -4.235  0.0000E+00  0.0000E+00  0.0000E+00  0.0000E+00
     -4.168  0.0000E+00  0.0000E+00  0.0000E+00  0.0000E+00
     -4.101  0.0000E+00  0.0000E+00  0.0000E+00  0.0000E+00
     -4.034  0.0000E+00  0.0000E+00  0.0000E+00  0.0000E+00
     -3.966  0.7392E-04  0.6681E-04  0.4966E-05  0.4488E-05
     -3.899  0.2093E-03  0.1892E-03  0.1903E-04  0.1720E-04
     -3.832  0.8008E-03  0.7239E-03  0.7283E-04  0.6583E-04
     -3.765  0.3048E-02  0.2757E-02  0.2776E-03  0.2511E-03
     -3.698  0.1138E-01  0.1032E-01  0.1042E-02  0.9442E-03
     -3.630  0.3955E-01  0.3619E-01  0.3699E-02  0.3375E-02
     -3.563  0.1094E+00  0.1028E+00  0.1105E-01  0.1028E-01
     -3.496  0.1775E+00  0.1756E+00  0.2298E-01  0.2208E-01
     -3.429  0.1345E+00  0.1409E+00  0.3202E-01  0.3155E-01
     -3.362  0.5776E-01  0.6203E-01  0.3590E-01  0.3571E-01
     -3.295  0.3056E-01  0.3081E-01  0.3795E-01  0.3778E-01
     -3.227  0.5732E-01  0.5295E-01  0.4180E-01  0.4134E-01
     -3.160  0.1758E+00  0.1621E+00  0.5361E-01  0.5223E-01
     -3.093  0.4186E+00  0.3991E+00  0.8176E-01  0.7908E-01
     -3.026  0.5269E+00  0.5324E+00  0.1172E+00  0.1148E+00
     -2.959  0.3116E+00  0.3313E+00  0.1381E+00  0.1371E+00
     -2.891  0.1155E+00  0.1250E+00  0.1459E+00  0.1455E+00
     -2.824  0.5437E-01  0.5539E-01  0.1495E+00  0.1492E+00
     -2.757  0.9145E-01  0.8499E-01  0.1557E+00  0.1549E+00
     -2.690  0.2548E+00  0.2373E+00  0.1728E+00  0.1709E+00
     -2.623  0.4972E+00  0.4835E+00  0.2062E+00  0.2034E+00
     -2.556  0.4723E+00  0.4871E+00  0.2380E+00  0.2361E+00
     -2.488  0.2251E+00  0.2419E+00  0.2531E+00  0.2524E+00
     -2.421  0.8401E-01  0.8959E-01  0.2587E+00  0.2584E+00
     -2.354  0.6993E-01  0.6728E-01  0.2634E+00  0.2629E+00
     -2.287  0.1788E+00  0.1649E+00  0.2754E+00  0.2740E+00
     -2.220  0.4663E+00  0.4396E+00  0.3069E+00  0.3037E+00
     -2.152  0.7140E+00  0.7099E+00  0.3549E+00  0.3514E+00
     -2.085  0.5085E+00  0.5345E+00  0.3890E+00  0.3873E+00
     -2.018  0.2065E+00  0.2228E+00  0.4029E+00  0.4023E+00
     -1.951  0.9277E-01  0.9540E-01  0.4091E+00  0.4087E+00
     -1.884  0.1414E+00  0.1317E+00  0.4186E+00  0.4175E+00
     -1.817  0.4077E+00  0.3774E+00  0.4460E+00  0.4429E+00
     -1.749  0.9026E+00  0.8671E+00  0.5067E+00  0.5012E+00
     -1.682  0.1023E+01  0.1041E+01  0.5754E+00  0.5712E+00
     -1.615  0.5524E+00  0.5904E+00  0.6126E+00  0.6109E+00
     -1.548  0.1938E+00  0.2106E+00  0.6256E+00  0.6250E+00
     -1.481  0.8208E-01  0.8469E-01  0.6311E+00  0.6307E+00
     -1.413  0.1188E+00  0.1113E+00  0.6391E+00  0.6382E+00
     -1.346  0.3046E+00  0.2858E+00  0.6595E+00  0.6574E+00
     -1.279  0.5239E+00  0.5152E+00  0.6948E+00  0.6921E+00
     -1.212  0.4290E+00  0.4469E+00  0.7236E+00  0.7221E+00
     -1.145  0.1887E+00  0.2030E+00  0.7363E+00  0.7357E+00
     -1.078  0.8339E-01  0.8623E-01  0.7419E+00  0.7415E+00
     -1.010  0.1184E+00  0.1106E+00  0.7499E+00  0.7490E+00
     -0.943  0.3461E+00  0.3194E+00  0.7731E+00  0.7704E+00
     -0.876  0.8276E+00  0.7889E+00  0.8288E+00  0.8235E+00
     -0.809  0.1058E+01  0.1067E+01  0.8999E+00  0.8952E+00
     -0.742  0.6354E+00  0.6746E+00  0.9426E+00  0.9405E+00
     -0.674  0.2441E+00  0.2627E+00  0.9590E+00  0.9582E+00
     -0.607  0.1405E+00  0.1399E+00  0.9684E+00  0.9676E+00
     -0.540  0.2898E+00  0.2678E+00  0.9879E+00  0.9856E+00
     -0.473  0.8163E+00  0.7618E+00  0.1043E+01  0.1037E+01
     -0.406  0.1526E+01  0.1490E+01  0.1145E+01  0.1137E+01
     -0.339  0.1367E+01  0.1416E+01  0.1237E+01  0.1232E+01
     -0.271  0.6201E+00  0.6687E+00  0.1279E+01  0.1277E+01
     -0.204  0.2056E+00  0.2232E+00  0.1293E+01  0.1292E+01
     -0.137  0.9987E-01  0.1011E+00  0.1299E+01  0.1299E+01
     -0.070  0.1714E+00  0.1602E+00  0.1311E+01  0.1310E+01
     -0.003  0.3944E+00  0.3743E+00  0.1338E+01  0.1335E+01
      0.065  0.5339E+00  0.5365E+00  0.1374E+01  0.1371E+01
      0.132  0.3390E+00  0.3586E+00  0.1396E+01  0.1395E+01
      0.199  0.1372E+00  0.1468E+00  0.1406E+01  0.1405E+01
      0.266  0.9149E-01  0.8983E-01  0.1412E+01  0.1411E+01
      0.333  0.2105E+00  0.1939E+00  0.1426E+01  0.1424E+01
      0.400  0.6086E+00  0.5672E+00  0.1467E+01  0.1462E+01
      0.468  0.1172E+01  0.1141E+01  0.1545E+01  0.1539E+01
      0.535  0.1088E+01  0.1124E+01  0.1619E+01  0.1614E+01
      0.602  0.5119E+00  0.5500E+00  0.1653E+01  0.1651E+01
      0.669  0.1968E+00  0.2086E+00  0.1666E+01  0.1665E+01
      0.736  0.1852E+00  0.1768E+00  0.1679E+01  0.1677E+01
      0.804  0.4859E+00  0.4492E+00  0.1711E+01  0.1707E+01
      0.871  0.1186E+01  0.1127E+01  0.1791E+01  0.1783E+01
      0.938  0.1599E+01  0.1606E+01  0.1899E+01  0.1891E+01
      1.005  0.1005E+01  0.1065E+01  0.1966E+01  0.1963E+01
      1.072  0.3786E+00  0.4101E+00  0.1992E+01  0.1991E+01
      1.139  0.1566E+00  0.1625E+00  0.2002E+01  0.2001E+01
      1.207  0.2111E+00  0.1982E+00  0.2016E+01  0.2015E+01
      1.274  0.5511E+00  0.5155E+00  0.2053E+01  0.2049E+01
      1.341  0.1019E+01  0.9961E+00  0.2122E+01  0.2116E+01
      1.408  0.9114E+00  0.9436E+00  0.2183E+01  0.2180E+01
      1.475  0.4205E+00  0.4517E+00  0.2211E+01  0.2210E+01
      1.543  0.1712E+00  0.1795E+00  0.2223E+01  0.2222E+01
      1.610  0.1945E+00  0.1838E+00  0.2236E+01  0.2235E+01
      1.677  0.5349E+00  0.4950E+00  0.2272E+01  0.2268E+01
      1.744  0.1257E+01  0.1200E+01  0.2357E+01  0.2349E+01
      1.811  0.1579E+01  0.1595E+01  0.2463E+01  0.2456E+01
      1.878  0.9350E+00  0.9928E+00  0.2526E+01  0.2523E+01
      1.946  0.3517E+00  0.3793E+00  0.2549E+01  0.2548E+01
      2.013  0.1834E+00  0.1846E+00  0.2562E+01  0.2561E+01
      2.080  0.3413E+00  0.3171E+00  0.2584E+01  0.2582E+01
      2.147  0.9126E+00  0.8564E+00  0.2646E+01  0.2639E+01
      2.214  0.1571E+01  0.1546E+01  0.2751E+01  0.2743E+01
      2.282  0.1281E+01  0.1334E+01  0.2838E+01  0.2833E+01
      2.349  0.5515E+00  0.5948E+00  0.2875E+01  0.2873E+01
      2.416  0.2018E+00  0.2146E+00  0.2888E+01  0.2887E+01
      2.483  0.1782E+00  0.1711E+00  0.2900E+01  0.2899E+01
      2.550  0.4352E+00  0.4055E+00  0.2929E+01  0.2926E+01
      2.617  0.9240E+00  0.8906E+00  0.2992E+01  0.2986E+01
      2.685  0.1010E+01  0.1031E+01  0.3060E+01  0.3056E+01
      2.752  0.5340E+00  0.5700E+00  0.3095E+01  0.3094E+01
      2.819  0.2014E+00  0.2154E+00  0.3109E+01  0.3108E+01
      2.886  0.1438E+00  0.1404E+00  0.3119E+01  0.3118E+01
      2.953  0.3225E+00  0.3004E+00  0.3140E+01  0.3138E+01
      3.021  0.7460E+00  0.7114E+00  0.3190E+01  0.3186E+01
      3.088  0.1015E+01  0.1014E+01  0.3259E+01  0.3254E+01
      3.155  0.7199E+00  0.7533E+00  0.3307E+01  0.3305E+01
      3.222  0.3272E+00  0.3476E+00  0.3329E+01  0.3328E+01
      3.289  0.2361E+00  0.2313E+00  0.3345E+01  0.3343E+01
      3.356  0.5433E+00  0.5033E+00  0.3381E+01  0.3377E+01
      3.424  0.1461E+01  0.1375E+01  0.3480E+01  0.3470E+01
      3.491  0.2510E+01  0.2466E+01  0.3648E+01  0.3635E+01
      3.558  0.2167E+01  0.2242E+01  0.3794E+01  0.3786E+01
      3.625  0.1001E+01  0.1075E+01  0.3861E+01  0.3858E+01
      3.692  0.3634E+00  0.3885E+00  0.3886E+01  0.3884E+01
      3.760  0.2683E+00  0.2613E+00  0.3904E+01  0.3902E+01
      3.827  0.5919E+00  0.5535E+00  0.3943E+01  0.3939E+01
      3.894  0.1249E+01  0.1200E+01  0.4028E+01  0.4020E+01
      3.961  0.1508E+01  0.1522E+01  0.4129E+01  0.4122E+01
      4.028  0.9300E+00  0.9832E+00  0.4192E+01  0.4189E+01
      4.095  0.3757E+00  0.4022E+00  0.4217E+01  0.4216E+01
      4.163  0.2381E+00  0.2359E+00  0.4233E+01  0.4231E+01
      4.230  0.4761E+00  0.4466E+00  0.4265E+01  0.4261E+01
      4.297  0.1014E+01  0.9766E+00  0.4333E+01  0.4327E+01
      4.364  0.1180E+01  0.1195E+01  0.4412E+01  0.4408E+01
      4.431  0.6924E+00  0.7321E+00  0.4459E+01  0.4457E+01
      4.499  0.2779E+00  0.2965E+00  0.4478E+01  0.4477E+01
      4.566  0.1832E+00  0.1802E+00  0.4490E+01  0.4489E+01
      4.633  0.4081E+00  0.3780E+00  0.4517E+01  0.4514E+01
      4.700  0.1110E+01  0.1042E+01  0.4592E+01  0.4584E+01
      4.767  0.1964E+01  0.1924E+01  0.4724E+01  0.4714E+01
      4.834  0.1778E+01  0.1833E+01  0.4843E+01  0.4837E+01
      4.902  0.8535E+00  0.9154E+00  0.4901E+01  0.4898E+01
      4.969  0.2884E+00  0.3131E+00  0.4920E+01  0.4919E+01
      5.036  0.1234E+00  0.1269E+00  0.4928E+01  0.4928E+01
      5.103  0.1771E+00  0.1668E+00  0.4940E+01  0.4939E+01
      5.170  0.3983E+00  0.3792E+00  0.4967E+01  0.4965E+01
      5.238  0.5375E+00  0.5393E+00  0.5003E+01  0.5001E+01
      5.305  0.3531E+00  0.3711E+00  0.5027E+01  0.5026E+01
      5.372  0.1867E+00  0.1918E+00  0.5040E+01  0.5039E+01
      5.439  0.2688E+00  0.2523E+00  0.5058E+01  0.5056E+01
      5.506  0.7617E+00  0.7079E+00  0.5109E+01  0.5103E+01
      5.573  0.1724E+01  0.1654E+01  0.5225E+01  0.5214E+01
      5.641  0.2144E+01  0.2156E+01  0.5369E+01  0.5359E+01
      5.708  0.1531E+01  0.1579E+01  0.5472E+01  0.5465E+01
      5.775  0.9999E+00  0.1027E+01  0.5539E+01  0.5534E+01
      5.842  0.6605E+00  0.6833E+00  0.5583E+01  0.5580E+01
      5.909  0.5955E+00  0.5844E+00  0.5623E+01  0.5620E+01
      5.977  0.1091E+01  0.1040E+01  0.5696E+01  0.5689E+01
      6.044  0.1683E+01  0.1657E+01  0.5810E+01  0.5801E+01
      6.111  0.1639E+01  0.1651E+01  0.5920E+01  0.5912E+01
      6.178  0.1469E+01  0.1473E+01  0.6019E+01  0.6011E+01
      6.245  0.1164E+01  0.1205E+01  0.6097E+01  0.6092E+01
      6.312  0.5951E+00  0.6346E+00  0.6137E+01  0.6135E+01
      6.380  0.3517E+00  0.3556E+00  0.6160E+01  0.6159E+01
      6.447  0.4944E+00  0.4766E+00  0.6194E+01  0.6191E+01
      6.514  0.6839E+00  0.6762E+00  0.6240E+01  0.6236E+01
      6.581  0.7024E+00  0.6990E+00  0.6287E+01  0.6283E+01
      6.648  0.6979E+00  0.7025E+00  0.6334E+01  0.6330E+01
      6.716  0.5657E+00  0.5771E+00  0.6372E+01  0.6369E+01
      6.783  0.6613E+00  0.6411E+00  0.6416E+01  0.6412E+01
      6.850  0.1091E+01  0.1063E+01  0.6490E+01  0.6484E+01
      6.917  0.1170E+01  0.1179E+01  0.6568E+01  0.6563E+01
      6.984  0.1059E+01  0.1049E+01  0.6639E+01  0.6633E+01
      7.051  0.1223E+01  0.1213E+01  0.6722E+01  0.6715E+01
      7.119  0.1026E+01  0.1058E+01  0.6791E+01  0.6786E+01
      7.186  0.7875E+00  0.7917E+00  0.6844E+01  0.6839E+01
      7.253  0.1050E+01  0.1024E+01  0.6914E+01  0.6908E+01
      7.320  0.1194E+01  0.1202E+01  0.6995E+01  0.6989E+01
      7.387  0.1004E+01  0.1005E+01  0.7062E+01  0.7057E+01
      7.455  0.1153E+01  0.1130E+01  0.7140E+01  0.7133E+01
      7.522  0.1170E+01  0.1190E+01  0.7218E+01  0.7213E+01
      7.589  0.9248E+00  0.9367E+00  0.7280E+01  0.7276E+01
      7.656  0.1194E+01  0.1160E+01  0.7361E+01  0.7354E+01
      7.723  0.1569E+01  0.1565E+01  0.7466E+01  0.7459E+01
      7.790  0.1169E+01  0.1218E+01  0.7545E+01  0.7541E+01
      7.858  0.5115E+00  0.5495E+00  0.7579E+01  0.7578E+01
      7.925  0.1905E+00  0.2020E+00  0.7592E+01  0.7591E+01
      7.992  0.1650E+00  0.1592E+00  0.7603E+01  0.7602E+01
      8.059  0.3613E+00  0.3407E+00  0.7627E+01  0.7625E+01
      8.126  0.6415E+00  0.6242E+00  0.7670E+01  0.7667E+01
      8.194  0.7892E+00  0.7715E+00  0.7724E+01  0.7719E+01
      8.261  0.1207E+01  0.1152E+01  0.7805E+01  0.7796E+01
      8.328  0.1709E+01  0.1695E+01  0.7919E+01  0.7910E+01
      8.395  0.1381E+01  0.1431E+01  0.8012E+01  0.8006E+01
      8.462  0.1069E+01  0.1075E+01  0.8084E+01  0.8078E+01
      8.529  0.1302E+01  0.1285E+01  0.8172E+01  0.8165E+01
      8.597  0.1366E+01  0.1365E+01  0.8263E+01  0.8256E+01
      8.664  0.1502E+01  0.1472E+01  0.8364E+01  0.8355E+01
      8.731  0.1680E+01  0.1688E+01  0.8477E+01  0.8469E+01
      8.798  0.1119E+01  0.1182E+01  0.8553E+01  0.8548E+01
      8.865  0.4603E+00  0.4983E+00  0.8583E+01  0.8582E+01
      8.933  0.2308E+00  0.2345E+00  0.8599E+01  0.8598E+01
      9.000  0.3821E+00  0.3569E+00  0.8625E+01  0.8622E+01
      9.067  0.8517E+00  0.8109E+00  0.8682E+01  0.8676E+01
      9.134  0.1099E+01  0.1105E+01  0.8756E+01  0.8751E+01
      9.201  0.7759E+00  0.8059E+00  0.8808E+01  0.8805E+01
      9.268  0.6332E+00  0.6311E+00  0.8851E+01  0.8847E+01
      9.336  0.7703E+00  0.7613E+00  0.8902E+01  0.8899E+01
      9.403  0.8416E+00  0.8317E+00  0.8959E+01  0.8954E+01
      9.470  0.1127E+01  0.1085E+01  0.9035E+01  0.9027E+01
      9.537  0.1653E+01  0.1620E+01  0.9146E+01  0.9136E+01
      9.604  0.1605E+01  0.1638E+01  0.9254E+01  0.9246E+01
      9.672  0.1323E+01  0.1330E+01  0.9343E+01  0.9336E+01
      9.739  0.1679E+01  0.1643E+01  0.9456E+01  0.9446E+01
      9.806  0.2024E+01  0.2010E+01  0.9592E+01  0.9581E+01
      9.873  0.2178E+01  0.2144E+01  0.9738E+01  0.9725E+01
      9.940  0.2420E+01  0.2424E+01  0.9901E+01  0.9888E+01
     10.007  0.1671E+01  0.1763E+01  0.1001E+02  0.1001E+02
     10.075  0.6911E+00  0.7496E+00  0.1006E+02  0.1006E+02
     10.142  0.3246E+00  0.3330E+00  0.1008E+02  0.1008E+02
     10.209  0.5066E+00  0.4704E+00  0.1012E+02  0.1011E+02
     10.276  0.1292E+01  0.1208E+01  0.1020E+02  0.1019E+02
     10.343  0.2140E+01  0.2108E+01  0.1035E+02  0.1033E+02
     10.411  0.1726E+01  0.1801E+01  0.1046E+02  0.1046E+02
     10.478  0.9324E+00  0.9777E+00  0.1052E+02  0.1052E+02
     10.545  0.7155E+00  0.7233E+00  0.1057E+02  0.1057E+02
     10.612  0.5803E+00  0.5954E+00  0.1061E+02  0.1061E+02
     10.679  0.4143E+00  0.4168E+00  0.1064E+02  0.1064E+02
     10.746  0.4949E+00  0.4803E+00  0.1067E+02  0.1067E+02
     10.814  0.5526E+00  0.5605E+00  0.1071E+02  0.1071E+02
     10.881  0.3421E+00  0.3631E+00  0.1073E+02  0.1073E+02
     10.948  0.2232E+00  0.2295E+00  0.1075E+02  0.1075E+02
     11.015  0.4276E+00  0.4164E+00  0.1078E+02  0.1078E+02
     11.082  0.1066E+01  0.1037E+01  0.1085E+02  0.1085E+02
     11.150  0.1632E+01  0.1618E+01  0.1096E+02  0.1095E+02
     11.217  0.1279E+01  0.1294E+01  0.1104E+02  0.1104E+02
     11.284  0.7752E+00  0.7803E+00  0.1110E+02  0.1109E+02
     11.351  0.5622E+00  0.5684E+00  0.1113E+02  0.1113E+02
     11.418  0.5119E+00  0.5032E+00  0.1117E+02  0.1117E+02
     11.486  0.8243E+00  0.7882E+00  0.1122E+02  0.1122E+02
     11.553  0.1101E+01  0.1104E+01  0.1130E+02  0.1129E+02
     11.620  0.7632E+00  0.8104E+00  0.1135E+02  0.1135E+02
     11.687  0.4298E+00  0.4641E+00  0.1138E+02  0.1138E+02
     11.754  0.4785E+00  0.4984E+00  0.1141E+02  0.1141E+02
     11.821  0.5524E+00  0.5519E+00  0.1145E+02  0.1145E+02
     11.889  0.3345E+00  0.3235E+00  0.1147E+02  0.1147E+02
     11.956  0.1209E+00  0.1147E+00  0.1148E+02  0.1148E+02
     12.023  0.4291E-01  0.4014E-01  0.1148E+02  0.1148E+02
     12.090  0.4239E-01  0.3852E-01  0.1148E+02  0.1148E+02
     12.157  0.1239E+00  0.1121E+00  0.1149E+02  0.1149E+02
     12.225  0.3933E+00  0.3610E+00  0.1152E+02  0.1152E+02
     12.292  0.8986E+00  0.8585E+00  0.1158E+02  0.1157E+02
     12.359  0.1069E+01  0.1083E+01  0.1165E+02  0.1165E+02
     12.426  0.6732E+00  0.7069E+00  0.1170E+02  0.1169E+02
     12.493  0.3696E+00  0.3866E+00  0.1172E+02  0.1172E+02
     12.560  0.1905E+00  0.2038E+00  0.1173E+02  0.1173E+02
     12.628  0.7020E-01  0.7737E-01  0.1174E+02  0.1174E+02
     12.695  0.2056E-01  0.2296E-01  0.1174E+02  0.1174E+02
     12.762  0.4548E-02  0.5105E-02  0.1174E+02  0.1174E+02
     12.829  0.1199E-02  0.1348E-02  0.1174E+02  0.1174E+02
     12.896  0.0000E+00  0.0000E+00  0.1174E+02  0.1174E+02
     12.964  0.0000E+00  0.0000E+00  0.1174E+02  0.1174E+02
     13.031  0.2041E-03  0.1808E-03  0.1174E+02  0.1174E+02
     13.098  0.5780E-03  0.5120E-03  0.1174E+02  0.1174E+02
     13.165  0.2212E-02  0.1960E-02  0.1174E+02  0.1174E+02
     13.232  0.8423E-02  0.7469E-02  0.1174E+02  0.1174E+02
     13.299  0.3150E-01  0.2801E-01  0.1174E+02  0.1174E+02
     13.367  0.1103E+00  0.9907E-01  0.1175E+02  0.1175E+02
     13.434  0.3120E+00  0.2886E+00  0.1177E+02  0.1177E+02
     13.501  0.5272E+00  0.5179E+00  0.1181E+02  0.1180E+02
     13.568  0.4165E+00  0.4387E+00  0.1184E+02  0.1183E+02
     13.635  0.1732E+00  0.1908E+00  0.1185E+02  0.1185E+02
     13.703  0.5243E-01  0.5877E-01  0.1185E+02  0.1185E+02
     13.770  0.1425E-01  0.1606E-01  0.1185E+02  0.1185E+02
     13.837  0.4228E-02  0.4663E-02  0.1185E+02  0.1185E+02
     13.904  0.1324E-02  0.1189E-02  0.1185E+02  0.1185E+02
     13.971  0.5055E-02  0.4540E-02  0.1185E+02  0.1185E+02
     14.038  0.1909E-01  0.1717E-01  0.1185E+02  0.1185E+02
     14.106  0.6925E-01  0.6264E-01  0.1186E+02  0.1186E+02
     14.173  0.2185E+00  0.2012E+00  0.1187E+02  0.1187E+02
     14.240  0.4684E+00  0.4506E+00  0.1190E+02  0.1190E+02
     14.307  0.4992E+00  0.5114E+00  0.1194E+02  0.1194E+02
     14.374  0.2561E+00  0.2759E+00  0.1196E+02  0.1195E+02
     14.442  0.8486E-01  0.9350E-01  0.1196E+02  0.1196E+02
     14.509  0.2490E-01  0.2737E-01  0.1196E+02  0.1196E+02
     14.576  0.1118E-01  0.1136E-01  0.1196E+02  0.1196E+02
     14.643  0.1966E-01  0.1799E-01  0.1196E+02  0.1196E+02
     14.710  0.5926E-01  0.5397E-01  0.1197E+02  0.1197E+02
     14.777  0.1408E+00  0.1336E+00  0.1198E+02  0.1198E+02
     14.845  0.1750E+00  0.1772E+00  0.1199E+02  0.1199E+02
     14.912  0.1019E+00  0.1094E+00  0.1200E+02  0.1200E+02
     14.979  0.3574E-01  0.3955E-01  0.1200E+02  0.1200E+02
     15.046  0.1018E-01  0.1138E-01  0.1200E+02  0.1200E+02
     15.113  0.2719E-02  0.3048E-02  0.1200E+02  0.1200E+02
     15.181  0.7139E-03  0.8008E-03  0.1200E+02  0.1200E+02
     15.248  0.0000E+00  0.0000E+00  0.1200E+02  0.1200E+02
     15.315  0.0000E+00  0.0000E+00  0.1200E+02  0.1200E+02
     15.382  0.0000E+00  0.0000E+00  0.1200E+02  0.1200E+02
     15.449  0.0000E+00  0.0000E+00  0.1200E+02  0.1200E+02
     15.516  0.0000E+00  0.0000E+00  0.1200E+02  0.1200E+02
     15.584  0.0000E+00  0.0000E+00  0.1200E+02  0.1200E+02
     15.651  0.0000E+00  0.0000E+00  0.1200E+02  0.1200E+02
     15.718  0.0000E+00  0.0000E+00  0.1200E+02  0.1200E+02
     15.71797532     -4.43666151  301      6.16772818      1.00000000
     -4.437  0.0000E+00  0.0000E+00  0.0000E+00  0.0000E+00  0.0000E+00  0.0000E+00  0.0000E+00  0.0000E+00  0.0000E+00  0.0000E+00  0.0000E+00  0.0000E+00  0.0000E+00  0.0000E+00  0.0000E+00  0.0000E+00  0.0000E+00  0.0000E+00
     -4.369  0.0000E+00  0.0000E+00  0.0000E+00  0.0000E+00  0.0000E+00  0.0000E+00  0.0000E+00  0.0000E+00  0.0000E+00  0.0000E+00  0.0000E+00  0.0000E+00  0.0000E+00  0.0000E+00  0.0000E+00  0.0000E+00  0.0000E+00  0.0000E+00
     -4.302  0.0000E+00  0.0000E+00  0.0000E+00  0.0000E+00  0.0000E+00  0.0000E+00  0.0000E+00  0.0000E+00  0.0000E+00  0.0000E+00  0.0000E+00  0.0000E+00  0.0000E+00  0.0000E+00  0.0000E+00  0.0000E+00  0.0000E+00  0.0000E+00
     -4.235  0.0000E+00  0.0000E+00  0.0000E+00  0.0000E+00  0.0000E+00  0.0000E+00  0.0000E+00  0.0000E+00  0.0000E+00  0.0000E+00  0.0000E+00  0.0000E+00  0.0000E+00  0.0000E+00  0.0000E+00  0.0000E+00  0.0000E+00  0.0000E+00
     -4.168  0.0000E+00  0.0000E+00  0.0000E+00  0.0000E+00  0.0000E+00  0.0000E+00  0.0000E+00  0.0000E+00  0.0000E+00  0.0000E+00  0.0000E+00  0.0000E+00  0.0000E+00  0.0000E+00  0.0000E+00  0.0000E+00  0.0000E+00  0.0000E+00
     -4.101  0.0000E+00  0.0000E+00  0.0000E+00  0.0000E+00  0.0000E+00  0.0000E+00  0.0000E+00  0.0000E+00  0.0000E+00  0.0000E+00  0.0000E+00  0.0000E+00  0.0000E+00  0.0000E+00  0.0000E+00  0.0000E+00  0.0000E+00  0.0000E+00
     -4.034  0.0000E+00  0.0000E+00  0.0000E+00  0.0000E+00  0.0000E+00  0.0000E+00  0.0000E+00  0.0000E+00  0.0000E+00  0.0000E+00  0.0000E+00  0.0000E+00  0.0000E+00  0.0000E+00  0.0000E+00  0.0000E+00  0.0000E+00  0.0000E+00
     -3.966  0.4479E-05  0.4047E-05  0.1823E-07  0.1648E-07  0.1823E-07  0.1648E-07  0.1823E-07  0.1648E-07  0.0000E+00  0.0000E+00  0.0000E+00  0.0000E+00  0.0000E+00  0.0000E+00  0.0000E+00  0.0000E+00  0.0000E+00  0.0000E+00
     -3.899  0.1268E-04  0.1146E-04  0.5162E-07  0.4665E-07  0.5162E-07  0.4665E-07  0.5162E-07  0.4665E-07  0.0000E+00  0.0000E+00  0.0000E+00  0.0000E+00  0.0000E+00  0.0000E+00  0.0000E+00  0.0000E+00  0.0000E+00  0.0000E+00
     -3.832  0.4853E-04  0.4385E-04  0.1975E-06  0.1785E-06  0.1975E-06  0.1785E-06  0.1975E-06  0.1785E-06  0.0000E+00  0.0000E+00  0.0000E+00  0.0000E+00  0.0000E+00  0.0000E+00  0.0000E+00  0.0000E+00  0.0000E+00  0.0000E+00
     -3.765  0.1847E-03  0.1670E-03  0.7518E-06  0.6800E-06  0.7518E-06  0.6800E-06  0.7518E-06  0.6800E-06  0.0000E+00  0.0000E+00  0.0000E+00  0.0000E+00  0.0000E+00  0.0000E+00  0.0000E+00  0.0000E+00  0.0000E+00  0.0000E+00
     -3.698  0.6894E-03  0.6250E-03  0.2806E-05  0.2544E-05  0.2806E-05  0.2544E-05  0.2806E-05  0.2544E-05  0.0000E+00  0.0000E+00  0.0000E+00  0.0000E+00  0.0000E+00  0.0000E+00  0.0000E+00  0.0000E+00  0.0000E+00  0.0000E+00
     -3.630  0.2397E-02  0.2192E-02  0.9754E-05  0.8924E-05  0.9754E-05  0.8924E-05  0.9754E-05  0.8924E-05  0.0000E+00  0.0000E+00  0.0000E+00  0.0000E+00  0.0000E+00  0.0000E+00  0.0000E+00  0.0000E+00  0.0000E+00  0.0000E+00
     -3.563  0.6632E-02  0.6228E-02  0.2699E-04  0.2536E-04  0.2699E-04  0.2536E-04  0.2699E-04  0.2536E-04  0.0000E+00  0.0000E+00  0.0000E+00  0.0000E+00  0.0000E+00  0.0000E+00  0.0000E+00  0.0000E+00  0.0000E+00  0.0000E+00
     -3.496  0.1076E-01  0.1064E-01  0.4402E-04  0.4352E-04  0.4402E-04  0.4352E-04  0.4402E-04  0.4352E-04  0.0000E+00  0.0000E+00  0.0000E+00  0.0000E+00  0.0000E+00  0.0000E+00  0.0000E+00  0.0000E+00  0.0000E+00  0.0000E+00
     -3.429  0.8151E-02  0.8531E-02  0.3383E-04  0.3532E-04  0.3383E-04  0.3532E-04  0.3383E-04  0.3532E-04  0.0000E+00  0.0000E+00  0.0000E+00  0.0000E+00  0.0000E+00  0.0000E+00  0.0000E+00  0.0000E+00  0.0000E+00  0.0000E+00
     -3.362  0.3493E-02  0.3751E-02  0.1671E-04  0.1752E-04  0.1671E-04  0.1752E-04  0.1671E-04  0.1752E-04  0.0000E+00  0.0000E+00  0.0000E+00  0.0000E+00  0.0000E+00  0.0000E+00  0.0000E+00  0.0000E+00  0.0000E+00  0.0000E+00
     -3.295  0.1825E-02  0.1843E-02  0.1688E-04  0.1605E-04  0.1688E-04  0.1605E-04  0.1688E-04  0.1605E-04  0.0000E+00  0.0000E+00  0.0000E+00  0.0000E+00  0.0000E+00  0.0000E+00  0.0000E+00  0.0000E+00  0.0000E+00  0.0000E+00
     -3.227  0.3377E-02  0.3119E-02  0.4848E-04  0.4426E-04  0.4848E-04  0.4426E-04  0.4848E-04  0.4426E-04  0.0000E+00  0.0000E+00  0.0000E+00  0.0000E+00  0.0000E+00  0.0000E+00  0.0000E+00  0.0000E+00  0.0000E+00  0.0000E+00
     -3.160  0.1034E-01  0.9527E-02  0.1567E-03  0.1443E-03  0.1567E-03  0.1443E-03  0.1567E-03  0.1443E-03  0.0000E+00  0.0000E+00  0.0000E+00  0.0000E+00  0.0000E+00  0.0000E+00  0.0000E+00  0.0000E+00  0.0000E+00  0.0000E+00
     -3.093  0.2460E-01  0.2345E-01  0.3748E-03  0.3573E-03  0.3748E-03  0.3573E-03  0.3748E-03  0.3573E-03  0.0000E+00  0.0000E+00  0.0000E+00  0.0000E+00  0.0000E+00  0.0000E+00  0.0000E+00  0.0000E+00  0.0000E+00  0.0000E+00
     -3.026  0.3097E-01  0.3128E-01  0.4720E-03  0.4769E-03  0.4720E-03  0.4769E-03  0.4720E-03  0.4769E-03  0.0000E+00  0.0000E+00  0.0000E+00  0.0000E+00  0.0000E+00  0.0000E+00  0.0000E+00  0.0000E+00  0.0000E+00  0.0000E+00
     -2.959  0.1831E-01  0.1946E-01  0.2800E-03  0.2975E-03  0.2800E-03  0.2975E-03  0.2800E-03  0.2975E-03  0.0000E+00  0.0000E+00  0.0000E+00  0.0000E+00  0.0000E+00  0.0000E+00  0.0000E+00  0.0000E+00  0.0000E+00  0.0000E+00
     -2.891  0.6776E-02  0.7335E-02  0.1072E-03  0.1154E-03  0.1072E-03  0.1154E-03  0.1072E-03  0.1154E-03  0.0000E+00  0.0000E+00  0.0000E+00  0.0000E+00  0.0000E+00  0.0000E+00  0.0000E+00  0.0000E+00  0.0000E+00  0.0000E+00
     -2.824  0.3154E-02  0.3217E-02  0.6317E-04  0.6271E-04  0.6317E-04  0.6271E-04  0.6317E-04  0.6271E-04  0.0000E+00  0.0000E+00  0.0000E+00  0.0000E+00  0.0000E+00  0.0000E+00  0.0000E+00  0.0000E+00  0.0000E+00  0.0000E+00
     -2.757  0.5227E-02  0.4858E-02  0.1338E-03  0.1234E-03  0.1338E-03  0.1234E-03  0.1338E-03  0.1234E-03  0.0000E+00  0.0000E+00  0.0000E+00  0.0000E+00  0.0000E+00  0.0000E+00  0.0000E+00  0.0000E+00  0.0000E+00  0.0000E+00
     -2.690  0.1453E-01  0.1353E-01  0.3861E-03  0.3593E-03  0.3861E-03  0.3593E-03  0.3861E-03  0.3593E-03  0.0000E+00  0.0000E+00  0.0000E+00  0.0000E+00  0.0000E+00  0.0000E+00  0.0000E+00  0.0000E+00  0.0000E+00  0.0000E+00
     -2.623  0.2834E-01  0.2754E-01  0.7561E-03  0.7351E-03  0.7561E-03  0.7351E-03  0.7561E-03  0.7351E-03  0.0000E+00  0.0000E+00  0.0000E+00  0.0000E+00  0.0000E+00  0.0000E+00  0.0000E+00  0.0000E+00  0.0000E+00  0.0000E+00
     -2.556  0.2692E-01  0.2775E-01  0.7186E-03  0.7410E-03  0.7186E-03  0.7410E-03  0.7186E-03  0.7410E-03  0.0000E+00  0.0000E+00  0.0000E+00  0.0000E+00  0.0000E+00  0.0000E+00  0.0000E+00  0.0000E+00  0.0000E+00  0.0000E+00
     -2.488  0.1283E-01  0.1378E-01  0.3445E-03  0.3698E-03  0.3445E-03  0.3698E-03  0.3445E-03  0.3698E-03  0.0000E+00  0.0000E+00  0.0000E+00  0.0000E+00  0.0000E+00  0.0000E+00  0.0000E+00  0.0000E+00  0.0000E+00  0.0000E+00
     -2.421  0.4764E-02  0.5082E-02  0.1363E-03  0.1439E-03  0.1363E-03  0.1439E-03  0.1363E-03  0.1439E-03  0.0000E+00  0.0000E+00  0.0000E+00  0.0000E+00  0.0000E+00  0.0000E+00  0.0000E+00  0.0000E+00  0.0000E+00  0.0000E+00
     -2.354  0.3894E-02  0.3750E-02  0.1382E-03  0.1312E-03  0.1382E-03  0.1312E-03  0.1382E-03  0.1312E-03  0.0000E+00  0.0000E+00  0.0000E+00  0.0000E+00  0.0000E+00  0.0000E+00  0.0000E+00  0.0000E+00  0.0000E+00  0.0000E+00
     -2.287  0.9878E-02  0.9104E-02  0.3814E-03  0.3510E-03  0.3814E-03  0.3510E-03  0.3814E-03  0.3510E-03  0.0000E+00  0.0000E+00  0.0000E+00  0.0000E+00  0.0000E+00  0.0000E+00  0.0000E+00  0.0000E+00  0.0000E+00  0.0000E+00
     -2.220  0.2573E-01  0.2425E-01  0.1003E-02  0.9454E-03  0.1003E-02  0.9454E-03  0.1003E-02  0.9454E-03  0.0000E+00  0.0000E+00  0.0000E+00  0.0000E+00  0.0000E+00  0.0000E+00  0.0000E+00  0.0000E+00  0.0000E+00  0.0000E+00
     -2.152  0.3940E-01  0.3915E-01  0.1536E-02  0.1527E-02  0.1536E-02  0.1527E-02  0.1536E-02  0.1527E-02  0.0000E+00  0.0000E+00  0.0000E+00  0.0000E+00  0.0000E+00  0.0000E+00  0.0000E+00  0.0000E+00  0.0000E+00  0.0000E+00
     -2.085  0.2805E-01  0.2948E-01  0.1095E-02  0.1151E-02  0.1095E-02  0.1151E-02  0.1095E-02  0.1151E-02  0.0000E+00  0.0000E+00  0.0000E+00  0.0000E+00  0.0000E+00  0.0000E+00  0.0000E+00  0.0000E+00  0.0000E+00  0.0000E+00
     -2.018  0.1138E-01  0.1228E-01  0.4495E-03  0.4841E-03  0.4495E-03  0.4841E-03  0.4495E-03  0.4841E-03  0.0000E+00  0.0000E+00  0.0000E+00  0.0000E+00  0.0000E+00  0.0000E+00  0.0000E+00  0.0000E+00  0.0000E+00  0.0000E+00
     -1.951  0.5060E-02  0.5209E-02  0.2199E-03  0.2236E-03  0.2199E-03  0.2236E-03  0.2199E-03  0.2236E-03  0.0000E+00  0.0000E+00  0.0000E+00  0.0000E+00  0.0000E+00  0.0000E+00  0.0000E+00  0.0000E+00  0.0000E+00  0.0000E+00
     -1.884  0.7588E-02  0.7071E-02  0.3784E-03  0.3508E-03  0.3784E-03  0.3508E-03  0.3784E-03  0.3508E-03  0.0000E+00  0.0000E+00  0.0000E+00  0.0000E+00  0.0000E+00  0.0000E+00  0.0000E+00  0.0000E+00  0.0000E+00  0.0000E+00
     -1.817  0.2181E-01  0.2018E-01  0.1115E-02  0.1032E-02  0.1115E-02  0.1032E-02  0.1115E-02  0.1032E-02  0.0000E+00  0.0000E+00  0.0000E+00  0.0000E+00  0.0000E+00  0.0000E+00  0.0000E+00  0.0000E+00  0.0000E+00  0.0000E+00
     -1.749  0.4827E-01  0.4634E-01  0.2475E-02  0.2377E-02  0.2475E-02  0.2377E-02  0.2475E-02  0.2377E-02  0.0000E+00  0.0000E+00  0.0000E+00  0.0000E+00  0.0000E+00  0.0000E+00  0.0000E+00  0.0000E+00  0.0000E+00  0.0000E+00
     -1.682  0.5468E-01  0.5566E-01  0.2804E-02  0.2855E-02  0.2804E-02  0.2855E-02  0.2804E-02  0.2855E-02  0.0000E+00  0.0000E+00  0.0000E+00  0.0000E+00  0.0000E+00  0.0000E+00  0.0000E+00  0.0000E+00  0.0000E+00  0.0000E+00
     -1.615  0.2953E-01  0.3155E-01  0.1515E-02  0.1619E-02  0.1515E-02  0.1619E-02  0.1515E-02  0.1619E-02  0.0000E+00  0.0000E+00  0.0000E+00  0.0000E+00  0.0000E+00  0.0000E+00  0.0000E+00  0.0000E+00  0.0000E+00  0.0000E+00
     -1.548  0.1035E-01  0.1125E-01  0.5356E-03  0.5812E-03  0.5356E-03  0.5812E-03  0.5356E-03  0.5812E-03  0.0000E+00  0.0000E+00  0.0000E+00  0.0000E+00  0.0000E+00  0.0000E+00  0.0000E+00  0.0000E+00  0.0000E+00  0.0000E+00
     -1.481  0.4343E-02  0.4484E-02  0.2413E-03  0.2468E-03  0.2413E-03  0.2468E-03  0.2413E-03  0.2468E-03  0.0000E+00  0.0000E+00  0.0000E+00  0.0000E+00  0.0000E+00  0.0000E+00  0.0000E+00  0.0000E+00  0.0000E+00  0.0000E+00
     -1.413  0.6190E-02  0.5797E-02  0.3829E-03  0.3572E-03  0.3829E-03  0.3572E-03  0.3829E-03  0.3572E-03  0.0000E+00  0.0000E+00  0.0000E+00  0.0000E+00  0.0000E+00  0.0000E+00  0.0000E+00  0.0000E+00  0.0000E+00  0.0000E+00
     -1.346  0.1582E-01  0.1483E-01  0.9991E-03  0.9367E-03  0.9991E-03  0.9367E-03  0.9991E-03  0.9367E-03  0.0000E+00  0.0000E+00  0.0000E+00  0.0000E+00  0.0000E+00  0.0000E+00  0.0000E+00  0.0000E+00  0.0000E+00  0.0000E+00
     -1.279  0.2719E-01  0.2673E-01  0.1722E-02  0.1693E-02  0.1722E-02  0.1693E-02  0.1722E-02  0.1693E-02  0.0000E+00  0.0000E+00  0.0000E+00  0.0000E+00  0.0000E+00  0.0000E+00  0.0000E+00  0.0000E+00  0.0000E+00  0.0000E+00
     -1.212  0.2226E-01  0.2318E-01  0.1411E-02  0.1470E-02  0.1411E-02  0.1470E-02  0.1411E-02  0.1470E-02  0.0000E+00  0.0000E+00  0.0000E+00  0.0000E+00  0.0000E+00  0.0000E+00  0.0000E+00  0.0000E+00  0.0000E+00  0.0000E+00
     -1.145  0.9781E-02  0.1052E-01  0.6250E-03  0.6714E-03  0.6250E-03  0.6714E-03  0.6250E-03  0.6714E-03  0.0000E+00  0.0000E+00  0.0000E+00  0.0000E+00  0.0000E+00  0.0000E+00  0.0000E+00  0.0000E+00  0.0000E+00  0.0000E+00
     -1.078  0.4273E-02  0.4424E-02  0.2923E-03  0.2999E-03  0.2923E-03  0.2999E-03  0.2923E-03  0.2999E-03  0.0000E+00  0.0000E+00  0.0000E+00  0.0000E+00  0.0000E+00  0.0000E+00  0.0000E+00  0.0000E+00  0.0000E+00  0.0000E+00