   4   4   1   0
  0.1698044E+02  0.4080089E-09  0.4080089E-09  0.4080089E-09  0.5000000E-15
  1.000000000000000E-004
  CAR 
 unknown system                          
     18.16865744     -4.06075860  301      7.61805656      1.00000000
     -4.061  0.0000E+00  0.0000E+00  0.0000E+00  0.0000E+00
     -3.987  0.0000E+00  0.0000E+00  0.0000E+00  0.0000E+00
     -3.913  0.0000E+00  0.0000E+00  0.0000E+00  0.0000E+00
     -3.838  0.0000E+00  0.0000E+00  0.0000E+00  0.0000E+00
     -3.764  0.0000E+00  0.0000E+00  0.0000E+00  0.0000E+00
     -3.690  0.0000E+00  0.0000E+00  0.0000E+00  0.0000E+00
     -3.616  0.0000E+00  0.0000E+00  0.0000E+00  0.0000E+00
     -3.542  0.0000E+00  0.0000E+00  0.0000E+00  0.0000E+00
     -3.468  0.1178E-03  0.1078E-03  0.8728E-05  0.7990E-05
     -3.394  0.4003E-03  0.3665E-03  0.3839E-04  0.3514E-04
     -3.320  0.1754E-02  0.1607E-02  0.1684E-03  0.1542E-03
     -3.246  0.7577E-02  0.6951E-02  0.7298E-03  0.6692E-03
     -3.172  0.3078E-01  0.2842E-01  0.3011E-02  0.2775E-02
     -3.097  0.9947E-01  0.9391E-01  0.1038E-01  0.9734E-02
     -3.023  0.1757E+00  0.1740E+00  0.2340E-01  0.2263E-01
     -2.949  0.1261E+00  0.1318E+00  0.3275E-01  0.3239E-01
     -2.875  0.4590E-01  0.4915E-01  0.3615E-01  0.3603E-01
     -2.801  0.2004E-01  0.2029E-01  0.3763E-01  0.3754E-01
     -2.727  0.4025E-01  0.3743E-01  0.4062E-01  0.4031E-01
     -2.653  0.1459E+00  0.1355E+00  0.5142E-01  0.5035E-01
     -2.579  0.3993E+00  0.3824E+00  0.8103E-01  0.7871E-01
     -2.505  0.5201E+00  0.5256E+00  0.1196E+00  0.1176E+00
     -2.431  0.2773E+00  0.2938E+00  0.1401E+00  0.1394E+00
     -2.357  0.8663E-01  0.9324E-01  0.1465E+00  0.1463E+00
     -2.282  0.3554E-01  0.3610E-01  0.1492E+00  0.1490E+00
     -2.208  0.6828E-01  0.6369E-01  0.1542E+00  0.1537E+00
     -2.134  0.2253E+00  0.2109E+00  0.1710E+00  0.1695E+00
     -2.060  0.4904E+00  0.4785E+00  0.2074E+00  0.2049E+00
     -1.986  0.4520E+00  0.4660E+00  0.2408E+00  0.2395E+00
     -1.912  0.1860E+00  0.1990E+00  0.2546E+00  0.2542E+00
     -1.838  0.5804E-01  0.6164E-01  0.2589E+00  0.2588E+00
     -1.764  0.4786E-01  0.4597E-01  0.2625E+00  0.2622E+00
     -1.690  0.1472E+00  0.1366E+00  0.2734E+00  0.2723E+00
     -1.616  0.4441E+00  0.4214E+00  0.3064E+00  0.3036E+00
     -1.541  0.7089E+00  0.7071E+00  0.3589E+00  0.3560E+00
     -1.467  0.4571E+00  0.4799E+00  0.3928E+00  0.3915E+00
     -1.393  0.1556E+00  0.1671E+00  0.4043E+00  0.4039E+00
     -1.319  0.6096E-01  0.6238E-01  0.4088E+00  0.4085E+00
     -1.245  0.1069E+00  0.9989E-01  0.4167E+00  0.4159E+00
     -1.171  0.3647E+00  0.3400E+00  0.4439E+00  0.4413E+00
     -1.097  0.8988E+00  0.8687E+00  0.5105E+00  0.5057E+00
     -1.023  0.9843E+00  0.1005E+01  0.5835E+00  0.5802E+00
     -0.949  0.4557E+00  0.4855E+00  0.6172E+00  0.6162E+00
     -0.875  0.1337E+00  0.1442E+00  0.6272E+00  0.6268E+00
     -0.800  0.5292E-01  0.5389E-01  0.6311E+00  0.6308E+00
     -0.726  0.9689E-01  0.9069E-01  0.6383E+00  0.6376E+00
     -0.652  0.2925E+00  0.2761E+00  0.6601E+00  0.6582E+00
     -0.578  0.5255E+00  0.5200E+00  0.6990E+00  0.6967E+00
     -0.504  0.3841E+00  0.4007E+00  0.7275E+00  0.7264E+00
     -0.430  0.1398E+00  0.1498E+00  0.7378E+00  0.7375E+00
     -0.356  0.5490E-01  0.5626E-01  0.7419E+00  0.7417E+00
     -0.282  0.9397E-01  0.8783E-01  0.7489E+00  0.7482E+00
     -0.208  0.3275E+00  0.3051E+00  0.7731E+00  0.7708E+00
     -0.134  0.8497E+00  0.8177E+00  0.8361E+00  0.8314E+00
     -0.059  0.1017E+01  0.1033E+01  0.9115E+00  0.9079E+00
      0.015  0.5064E+00  0.5375E+00  0.9490E+00  0.9478E+00
      0.089  0.1607E+00  0.1718E+00  0.9609E+00  0.9605E+00
      0.163  0.9689E-01  0.9504E-01  0.9681E+00  0.9675E+00
      0.237  0.2597E+00  0.2412E+00  0.9873E+00  0.9854E+00
      0.311  0.8349E+00  0.7870E+00  0.1049E+01  0.1044E+01
      0.385  0.1562E+01  0.1541E+01  0.1165E+01  0.1158E+01
      0.459  0.1193E+01  0.1242E+01  0.1254E+01  0.1250E+01
      0.533  0.4346E+00  0.4670E+00  0.1286E+01  0.1285E+01
      0.607  0.1218E+00  0.1307E+00  0.1295E+01  0.1294E+01
      0.682  0.6858E-01  0.6756E-01  0.1300E+01  0.1299E+01
      0.756  0.1669E+00  0.1563E+00  0.1312E+01  0.1311E+01
      0.830  0.4223E+00  0.4063E+00  0.1344E+01  0.1341E+01
      0.904  0.5101E+00  0.5178E+00  0.1381E+01  0.1380E+01
      0.978  0.2567E+00  0.2722E+00  0.1400E+01  0.1400E+01
      1.052  0.8578E-01  0.9098E-01  0.1407E+01  0.1407E+01
      1.126  0.6790E-01  0.6544E-01  0.1412E+01  0.1411E+01
      1.200  0.2079E+00  0.1928E+00  0.1427E+01  0.1426E+01
      1.274  0.6689E+00  0.6313E+00  0.1477E+01  0.1473E+01
      1.348  0.1222E+01  0.1208E+01  0.1567E+01  0.1562E+01
      1.422  0.9093E+00  0.9477E+00  0.1635E+01  0.1632E+01
      1.497  0.3317E+00  0.3555E+00  0.1659E+01  0.1659E+01
      1.571  0.1178E+00  0.1223E+00  0.1668E+01  0.1668E+01
      1.645  0.1653E+00  0.1556E+00  0.1680E+01  0.1679E+01
      1.719  0.5468E+00  0.5109E+00  0.1721E+01  0.1717E+01
      1.793  0.1342E+01  0.1297E+01  0.1820E+01  0.1813E+01
      1.867  0.1480E+01  0.1510E+01  0.1930E+01  0.1925E+01
      1.941  0.6913E+00  0.7354E+00  0.1981E+01  0.1980E+01
      2.015  0.2086E+00  0.2238E+00  0.1997E+01  0.1996E+01
      2.089  0.1041E+00  0.1037E+00  0.2004E+01  0.2004E+01
      2.163  0.2382E+00  0.2227E+00  0.2022E+01  0.2020E+01
      2.238  0.6878E+00  0.6544E+00  0.2073E+01  0.2069E+01
      2.312  0.1063E+01  0.1063E+01  0.2152E+01  0.2148E+01
      2.386  0.6646E+00  0.6978E+00  0.2201E+01  0.2200E+01
      2.460  0.2249E+00  0.2408E+00  0.2218E+01  0.2217E+01
      2.534  0.9762E-01  0.9866E-01  0.2225E+01  0.2225E+01
      2.608  0.1963E+00  0.1831E+00  0.2240E+01  0.2238E+01
      2.682  0.6558E+00  0.6143E+00  0.2289E+01  0.2284E+01
      2.756  0.1455E+01  0.1418E+01  0.2396E+01  0.2389E+01
      2.830  0.1375E+01  0.1415E+01  0.2498E+01  0.2494E+01
      2.904  0.5770E+00  0.6160E+00  0.2541E+01  0.2540E+01
      2.979  0.1813E+00  0.1923E+00  0.2555E+01  0.2554E+01
      3.053  0.1485E+00  0.1429E+00  0.2566E+01  0.2565E+01
      3.127  0.4403E+00  0.4107E+00  0.2598E+01  0.2595E+01
      3.201  0.1191E+01  0.1142E+01  0.2687E+01  0.2680E+01
      3.275  0.1562E+01  0.1577E+01  0.2802E+01  0.2797E+01
      3.349  0.8387E+00  0.8870E+00  0.2865E+01  0.2862E+01
      3.423  0.2632E+00  0.2827E+00  0.2884E+01  0.2883E+01
      3.497  0.1089E+00  0.1105E+00  0.2892E+01  0.2892E+01
      3.571  0.2058E+00  0.1927E+00  0.2907E+01  0.2906E+01
      3.645  0.6125E+00  0.5795E+00  0.2953E+01  0.2949E+01
      3.720  0.1058E+01  0.1049E+01  0.3031E+01  0.3027E+01
      3.794  0.7413E+00  0.7747E+00  0.3086E+01  0.3084E+01
      3.868  0.2679E+00  0.2864E+00  0.3106E+01  0.3106E+01
      3.942  0.1224E+00  0.1239E+00  0.3115E+01  0.3115E+01
      4.016  0.2353E+00  0.2228E+00  0.3133E+01  0.3131E+01
      4.090  0.6069E+00  0.5832E+00  0.3178E+01  0.3174E+01
      4.164  0.9145E+00  0.9082E+00  0.3245E+01  0.3242E+01
      4.238  0.7478E+00  0.7677E+00  0.3301E+01  0.3299E+01
      4.312  0.3447E+00  0.3628E+00  0.3326E+01  0.3326E+01
      4.386  0.1813E+00  0.1818E+00  0.3340E+01  0.3339E+01
      4.461  0.3833E+00  0.3604E+00  0.3368E+01  0.3366E+01
      4.535  0.1158E+01  0.1099E+01  0.3454E+01  0.3447E+01
      4.609  0.2218E+01  0.2173E+01  0.3619E+01  0.3608E+01
      4.683  0.2179E+01  0.2221E+01  0.3780E+01  0.3773E+01
      4.757  0.1066E+01  0.1127E+01  0.3859E+01  0.3856E+01
      4.831  0.3456E+00  0.3679E+00  0.3885E+01  0.3884E+01
      4.905  0.2071E+00  0.2044E+00  0.3900E+01  0.3899E+01
      4.979  0.4676E+00  0.4434E+00  0.3935E+01  0.3932E+01
      5.053  0.1039E+01  0.1007E+01  0.4012E+01  0.4007E+01
      5.127  0.1394E+01  0.1392E+01  0.4115E+01  0.4110E+01
      5.201  0.9789E+00  0.1016E+01  0.4188E+01  0.4185E+01
      5.276  0.3863E+00  0.4080E+00  0.4217E+01  0.4216E+01
      5.350  0.2300E+00  0.2276E+00  0.4234E+01  0.4232E+01
      5.424  0.5075E+00  0.4820E+00  0.4271E+01  0.4268E+01
      5.498  0.1056E+01  0.1034E+01  0.4349E+01  0.4345E+01
      5.572  0.1026E+01  0.1047E+01  0.4426E+01  0.4422E+01
      5.646  0.5237E+00  0.5487E+00  0.4464E+01  0.4463E+01
      5.720  0.1965E+00  0.2071E+00  0.4479E+01  0.4478E+01
      5.794  0.1336E+00  0.1312E+00  0.4489E+01  0.4488E+01
      5.868  0.3574E+00  0.3366E+00  0.4515E+01  0.4513E+01
      5.942  0.1046E+01  0.1000E+01  0.4593E+01  0.4587E+01
      6.017  0.1803E+01  0.1779E+01  0.4727E+01  0.4719E+01
      6.091  0.1625E+01  0.1658E+01  0.4847E+01  0.4842E+01
      6.165  0.7699E+00  0.8127E+00  0.4904E+01  0.4902E+01
      6.239  0.2341E+00  0.2504E+00  0.4921E+01  0.4921E+01
      6.313  0.8880E-01  0.9067E-01  0.4928E+01  0.4928E+01
      6.387  0.1426E+00  0.1344E+00  0.4939E+01  0.4938E+01
      6.461  0.3788E+00  0.3626E+00  0.4967E+01  0.4965E+01
      6.535  0.5303E+00  0.5332E+00  0.5006E+01  0.5004E+01
      6.609  0.3137E+00  0.3285E+00  0.5030E+01  0.5029E+01
      6.683  0.1618E+00  0.1640E+00  0.5042E+01  0.5041E+01
      6.758  0.3085E+00  0.2915E+00  0.5064E+01  0.5063E+01
      6.832  0.9551E+00  0.9080E+00  0.5135E+01  0.5130E+01
      6.906  0.1844E+01  0.1815E+01  0.5272E+01  0.5264E+01
      6.980  0.1692E+01  0.1726E+01  0.5397E+01  0.5392E+01
      7.054  0.8915E+00  0.9261E+00  0.5463E+01  0.5461E+01
      7.128  0.5184E+00  0.5165E+00  0.5502E+01  0.5499E+01
      7.202  0.6926E+00  0.6742E+00  0.5553E+01  0.5549E+01
      7.276  0.9476E+00  0.9394E+00  0.5623E+01  0.5619E+01
      7.350  0.1332E+01  0.1316E+01  0.5722E+01  0.5716E+01
      7.424  0.1426E+01  0.1437E+01  0.5828E+01  0.5823E+01
      7.499  0.1004E+01  0.1025E+01  0.5902E+01  0.5899E+01
      7.573  0.7572E+00  0.7444E+00  0.5958E+01  0.5954E+01
      7.647  0.1049E+01  0.1020E+01  0.6036E+01  0.6030E+01
      7.721  0.1004E+01  0.1035E+01  0.6111E+01  0.6106E+01
      7.795  0.5622E+00  0.5887E+00  0.6152E+01  0.6150E+01
      7.869  0.5240E+00  0.5213E+00  0.6191E+01  0.6189E+01
      7.943  0.5598E+00  0.5673E+00  0.6233E+01  0.6231E+01
      8.017  0.3460E+00  0.3553E+00  0.6258E+01  0.6257E+01
      8.091  0.3512E+00  0.3373E+00  0.6284E+01  0.6282E+01
      8.165  0.7546E+00  0.7246E+00  0.6340E+01  0.6336E+01
      8.240  0.1229E+01  0.1215E+01  0.6432E+01  0.6426E+01
      8.314  0.1267E+01  0.1288E+01  0.6526E+01  0.6522E+01
      8.388  0.6981E+00  0.7273E+00  0.6577E+01  0.6575E+01
      8.462  0.3743E+00  0.3717E+00  0.6605E+01  0.6603E+01
      8.536  0.6389E+00  0.6002E+00  0.6652E+01  0.6647E+01
      8.610  0.1196E+01  0.1170E+01  0.6741E+01  0.6734E+01
      8.684  0.1296E+01  0.1314E+01  0.6837E+01  0.6832E+01
      8.758  0.1307E+01  0.1320E+01  0.6934E+01  0.6930E+01
      8.832  0.9477E+00  0.9774E+00  0.7004E+01  0.7002E+01
      8.906  0.4255E+00  0.4381E+00  0.7036E+01  0.7035E+01
      8.980  0.4052E+00  0.3851E+00  0.7066E+01  0.7063E+01
      9.055  0.9929E+00  0.9388E+00  0.7140E+01  0.7133E+01
      9.129  0.1784E+01  0.1757E+01  0.7272E+01  0.7263E+01
      9.203  0.1903E+01  0.1927E+01  0.7413E+01  0.7406E+01
      9.277  0.1379E+01  0.1417E+01  0.7515E+01  0.7511E+01
      9.351  0.7231E+00  0.7564E+00  0.7569E+01  0.7567E+01
      9.425  0.2607E+00  0.2766E+00  0.7588E+01  0.7587E+01
      9.499  0.1236E+00  0.1242E+00  0.7597E+01  0.7597E+01
      9.573  0.2344E+00  0.2235E+00  0.7615E+01  0.7614E+01
      9.647  0.4932E+00  0.4834E+00  0.7652E+01  0.7650E+01
      9.721  0.4613E+00  0.4722E+00  0.7686E+01  0.7685E+01
      9.796  0.2194E+00  0.2273E+00  0.7702E+01  0.7701E+01
      9.870  0.1916E+00  0.1832E+00  0.7716E+01  0.7715E+01
      9.944  0.5516E+00  0.5131E+00  0.7757E+01  0.7753E+01
     10.018  0.1525E+01  0.1455E+01  0.7870E+01  0.7861E+01
     10.092  0.2460E+01  0.2445E+01  0.8052E+01  0.8042E+01
     10.166  0.1901E+01  0.1967E+01  0.8193E+01  0.8188E+01
     10.240  0.8796E+00  0.9116E+00  0.8258E+01  0.8255E+01
     10.314  0.7579E+00  0.7331E+00  0.8315E+01  0.8310E+01
     10.388  0.1225E+01  0.1188E+01  0.8405E+01  0.8398E+01
     10.462  0.1386E+01  0.1401E+01  0.8508E+01  0.8502E+01
     10.537  0.8082E+00  0.8594E+00  0.8568E+01  0.8566E+01
     10.611  0.3008E+00  0.3225E+00  0.8591E+01  0.8589E+01
     10.685  0.2405E+00  0.2325E+00  0.8608E+01  0.8607E+01
     10.759  0.6032E+00  0.5663E+00  0.8653E+01  0.8649E+01
     10.833  0.1158E+01  0.1140E+01  0.8739E+01  0.8733E+01
     10.907  0.1146E+01  0.1170E+01  0.8824E+01  0.8820E+01
     10.981  0.8641E+00  0.8857E+00  0.8888E+01  0.8886E+01
     11.055  0.5484E+00  0.5618E+00  0.8929E+01  0.8927E+01
     11.129  0.3789E+00  0.3811E+00  0.8957E+01  0.8955E+01
     11.203  0.4364E+00  0.4197E+00  0.8989E+01  0.8987E+01
     11.278  0.9580E+00  0.9091E+00  0.9060E+01  0.9054E+01
     11.352  0.1866E+01  0.1814E+01  0.9199E+01  0.9189E+01
     11.426  0.2490E+01  0.2491E+01  0.9383E+01  0.9373E+01
     11.500  0.2045E+01  0.2102E+01  0.9535E+01  0.9529E+01
     11.574  0.9963E+00  0.1043E+01  0.9609E+01  0.9606E+01
     11.648  0.5284E+00  0.5277E+00  0.9648E+01  0.9645E+01
     11.722  0.9646E+00  0.9115E+00  0.9719E+01  0.9713E+01
     11.796  0.1972E+01  0.1924E+01  0.9866E+01  0.9856E+01
     11.870  0.1815E+01  0.1871E+01  0.1000E+02  0.9995E+01
     11.944  0.7710E+00  0.8219E+00  0.1006E+02  0.1006E+02
     12.019  0.3296E+00  0.3358E+00  0.1008E+02  0.1008E+02
     12.093  0.5382E+00  0.5050E+00  0.1012E+02  0.1012E+02
     12.167  0.1340E+01  0.1279E+01  0.1022E+02  0.1021E+02
     12.241  0.2091E+01  0.2071E+01  0.1038E+02  0.1037E+02
     12.315  0.1970E+01  0.2014E+01  0.1052E+02  0.1052E+02
     12.389  0.1026E+01  0.1083E+01  0.1060E+02  0.1060E+02
     12.463  0.3289E+00  0.3524E+00  0.1062E+02  0.1062E+02
     12.537  0.1152E+00  0.1185E+00  0.1063E+02  0.1063E+02
     12.611  0.1555E+00  0.1456E+00  0.1064E+02  0.1064E+02
     12.685  0.3913E+00  0.3720E+00  0.1067E+02  0.1067E+02
     12.759  0.5296E+00  0.5343E+00  0.1071E+02  0.1071E+02
     12.834  0.3134E+00  0.3317E+00  0.1073E+02  0.1073E+02
     12.908  0.1980E+00  0.2033E+00  0.1075E+02  0.1075E+02
     12.982  0.4485E+00  0.4403E+00  0.1078E+02  0.1078E+02
     13.056  0.1191E+01  0.1174E+01  0.1087E+02  0.1087E+02
     13.130  0.1582E+01  0.1585E+01  0.1099E+02  0.1099E+02
     13.204  0.9130E+00  0.9246E+00  0.1106E+02  0.1105E+02
     13.278  0.4779E+00  0.4719E+00  0.1109E+02  0.1109E+02
     13.352  0.4884E+00  0.4815E+00  0.1113E+02  0.1113E+02
     13.426  0.5465E+00  0.5385E+00  0.1117E+02  0.1117E+02
     13.500  0.9123E+00  0.8807E+00  0.1124E+02  0.1123E+02
     13.575  0.1276E+01  0.1272E+01  0.1133E+02  0.1132E+02
     13.649  0.1059E+01  0.1078E+01  0.1141E+02  0.1140E+02
     13.723  0.6490E+00  0.6773E+00  0.1146E+02  0.1145E+02
     13.797  0.2458E+00  0.2649E+00  0.1148E+02  0.1147E+02
     13.871  0.6570E-01  0.7183E-01  0.1148E+02  0.1148E+02
     13.945  0.1389E-01  0.1515E-01  0.1148E+02  0.1148E+02
     14.019  0.5235E-02  0.5339E-02  0.1148E+02  0.1148E+02
     14.093  0.9609E-02  0.8732E-02  0.1148E+02  0.1148E+02
     14.167  0.4166E-01  0.3792E-01  0.1149E+02  0.1149E+02
     14.241  0.1703E+00  0.1560E+00  0.1150E+02  0.1150E+02
     14.316  0.5636E+00  0.5282E+00  0.1154E+02  0.1154E+02
     14.390  0.1049E+01  0.1034E+01  0.1162E+02  0.1161E+02
     14.464  0.8142E+00  0.8483E+00  0.1168E+02  0.1168E+02
     14.538  0.3698E+00  0.3880E+00  0.1171E+02  0.1170E+02
     14.612  0.2436E+00  0.2474E+00  0.1172E+02  0.1172E+02
     14.686  0.1574E+00  0.1648E+00  0.1174E+02  0.1173E+02
     14.760  0.5717E-01  0.6184E-01  0.1174E+02  0.1174E+02
     14.834  0.1399E-01  0.1532E-01  0.1174E+02  0.1174E+02
     14.908  0.3292E-02  0.3617E-02  0.1174E+02  0.1174E+02
     14.982  0.7541E-03  0.8291E-03  0.1174E+02  0.1174E+02
     15.057  0.0000E+00  0.0000E+00  0.1174E+02  0.1174E+02
     15.131  0.0000E+00  0.0000E+00  0.1174E+02  0.1174E+02
     15.205  0.0000E+00  0.1359E-03  0.1174E+02  0.1174E+02
     15.279  0.2709E-03  0.4623E-03  0.1174E+02  0.1174E+02
     15.353  0.9208E-03  0.2031E-02  0.1174E+02  0.1174E+02
     15.427  0.4040E-02  0.8876E-02  0.1174E+02  0.1174E+02
     15.501  0.1752E-01  0.3785E-01  0.1174E+02  0.1174E+02
     15.575  0.7249E-01  0.1460E+00  0.1175E+02  0.1176E+02
     15.649  0.2495E+00  0.4005E+00  0.1177E+02  0.1178E+02
     15.723  0.5068E+00  0.5194E+00  0.1180E+02  0.1182E+02
     15.798  0.4270E+00  0.2754E+00  0.1184E+02  0.1184E+02
     15.872  0.1644E+00  0.8266E-01  0.1185E+02  0.1185E+02
     15.946  0.4341E-01  0.2017E-01  0.1185E+02  0.1185E+02
     16.020  0.1023E-01  0.4659E-02  0.1185E+02  0.1185E+02
     16.094  0.2573E-02  0.2085E-03  0.1185E+02  0.1185E+02
     16.168  0.7789E-03  0.7087E-03  0.1185E+02  0.1185E+02
     16.242  0.3419E-02  0.3111E-02  0.1185E+02  0.1185E+02
     16.316  0.1487E-01  0.1354E-01  0.1185E+02  0.1185E+02
     16.390  0.6206E-01  0.5680E-01  0.1186E+02  0.1186E+02
     16.464  0.2209E+00  0.2057E+00  0.1187E+02  0.1187E+02
     16.539  0.4870E+00  0.4738E+00  0.1191E+02  0.1191E+02
     16.613  0.4557E+00  0.4705E+00  0.1194E+02  0.1194E+02
     16.687  0.1880E+00  0.2023E+00  0.1196E+02  0.1196E+02
     16.761  0.5104E-01  0.5578E-01  0.1196E+02  0.1196E+02
     16.835  0.1273E-01  0.1385E-01  0.1196E+02  0.1196E+02
     16.909  0.5644E-02  0.5664E-02  0.1196E+02  0.1196E+02
     16.983  0.1227E-01  0.1122E-01  0.1196E+02  0.1196E+02
     17.057  0.4749E-01  0.4388E-01  0.1197E+02  0.1197E+02
     17.131  0.1316E+00  0.1257E+00  0.1198E+02  0.1198E+02
     17.205  0.1738E+00  0.1756E+00  0.1199E+02  0.1199E+02
     17.279  0.9361E-01  0.9947E-01  0.1200E+02  0.1200E+02
     17.354  0.2829E-01  0.3078E-01  0.1200E+02  0.1200E+02
     17.428  0.6918E-02  0.7577E-02  0.1200E+02  0.1200E+02
     17.502  0.1599E-02  0.1754E-02  0.1200E+02  0.1200E+02
     17.576  0.0000E+00  0.0000E+00  0.1200E+02  0.1200E+02
     17.650  0.0000E+00  0.0000E+00  0.1200E+02  0.1200E+02
     17.724  0.0000E+00  0.0000E+00  0.1200E+02  0.1200E+02
     17.798  0.0000E+00  0.0000E+00  0.1200E+02  0.1200E+02
     17.872  0.0000E+00  0.0000E+00  0.1200E+02  0.1200E+02
     17.946  0.0000E+00  0.0000E+00  0.1200E+02  0.1200E+02
     18.020  0.0000E+00  0.0000E+00  0.1200E+02  0.1200E+02
     18.095  0.0000E+00  0.0000E+00  0.1200E+02  0.1200E+02
     18.169  0.0000E+00  0.0000E+00  0.1200E+02  0.1200E+02
     18.16865744     -4.06075860  301      7.61805656      1.00000000
     -4.061  0.0000E+00  0.0000E+00  0.0000E+00  0.0000E+00  0.0000E+00  0.0000E+00  0.0000E+00  0.0000E+00  0.0000E+00  0.0000E+00  0.0000E+00  0.0000E+00  0.0000E+00  0.0000E+00  0.0000E+00  0.0000E+00  0.0000E+00  0.0000E+00
     -3.987  0.0000E+00  0.0000E+00  0.0000E+00  0.0000E+00  0.0000E+00  0.0000E+00  0.0000E+00  0.0000E+00  0.0000E+00  0.0000E+00  0.0000E+00  0.0000E+00  0.0000E+00  0.0000E+00  0.0000E+00  0.0000E+00  0.0000E+00  0.0000E+00
     -3.913  0.0000E+00  0.0000E+00  0.0000E+00  0.0000E+00  0.0000E+00  0.0000E+00  0.0000E+00  0.0000E+00  0.0000E+00  0.0000E+00  0.0000E+00  0.0000E+00  0.0000E+00  0.0000E+00  0.0000E+00  0.0000E+00  0.0000E+00  0.0000E+00
     -3.838  0.0000E+00  0.0000E+00  0.0000E+00  0.0000E+00  0.0000E+00  0.0000E+00  0.0000E+00  0.0000E+00  0.0000E+00  0.0000E+00  0.0000E+00  0.0000E+00  0.0000E+00  0.0000E+00  0.0000E+00  0.0000E+00  0.0000E+00  0.0000E+00
     -3.764  0.0000E+00  0.0000E+00  0.0000E+00  0.0000E+00  0.0000E+00  0.0000E+00  0.0000E+00  0.0000E+00  0.0000E+00  0.0000E+00  0.0000E+00  0.0000E+00  0.0000E+00  0.0000E+00  0.0000E+00  0.0000E+00  0.0000E+00  0.0000E+00
     -3.690  0.0000E+00  0.0000E+00  0.0000E+00  0.0000E+00  0.0000E+00  0.0000E+00  0.0000E+00  0.0000E+00  0.0000E+00  0.0000E+00  0.0000E+00  0.0000E+00  0.0000E+00  0.0000E+00  0.0000E+00  0.0000E+00  0.0000E+00  0.0000E+00
     -3.616  0.0000E+00  0.0000E+00  0.0000E+00  0.0000E+00  0.0000E+00  0.0000E+00  0.0000E+00  0.0000E+00  0.0000E+00  0.0000E+00  0.0000E+00  0.0000E+00  0.0000E+00  0.0000E+00  0.0000E+00  0.0000E+00  0.0000E+00  0.0000E+00
     -3.542  0.0000E+00  0.0000E+00  0.0000E+00  0.0000E+00  0.0000E+00  0.0000E+00  0.0000E+00  0.0000E+00  0.0000E+00  0.0000E+00  0.0000E+00  0.0000E+00  0.0000E+00  0.0000E+00  0.0000E+00  0.0000E+00  0.0000E+00  0.0000E+00
     -3.468  0.7712E-05  0.7059E-05  0.3608E-07  0.3303E-07  0.3608E-07  0.3303E-07  0.3608E-07  0.3303E-07  0.0000E+00  0.0000E+00  0.0000E+00  0.0000E+00  0.0000E+00  0.0000E+00  0.0000E+00  0.0000E+00  0.0000E+00  0.0000E+00
     -3.394  0.2621E-04  0.2399E-04  0.1226E-06  0.1122E-06  0.1226E-06  0.1122E-06  0.1226E-06  0.1122E-06  0.0000E+00  0.0000E+00  0.0000E+00  0.0000E+00  0.0000E+00  0.0000E+00  0.0000E+00  0.0000E+00  0.0000E+00  0.0000E+00
     -3.320  0.1149E-03  0.1052E-03  0.5374E-06  0.4921E-06  0.5374E-06  0.4921E-06  0.5374E-06  0.4921E-06  0.0000E+00  0.0000E+00  0.0000E+00  0.0000E+00  0.0000E+00  0.0000E+00  0.0000E+00  0.0000E+00  0.0000E+00  0.0000E+00
     -3.246  0.4961E-03  0.4550E-03  0.2321E-05  0.2129E-05  0.2321E-05  0.2129E-05  0.2321E-05  0.2129E-05  0.0000E+00  0.0000E+00  0.0000E+00  0.0000E+00  0.0000E+00  0.0000E+00  0.0000E+00  0.0000E+00  0.0000E+00  0.0000E+00
     -3.172  0.2015E-02  0.1860E-02  0.9429E-05  0.8705E-05  0.9429E-05  0.8705E-05  0.9429E-05  0.8705E-05  0.0000E+00  0.0000E+00  0.0000E+00  0.0000E+00  0.0000E+00  0.0000E+00  0.0000E+00  0.0000E+00  0.0000E+00  0.0000E+00
     -3.097  0.6512E-02  0.6147E-02  0.3047E-04  0.2876E-04  0.3047E-04  0.2876E-04  0.3047E-04  0.2876E-04  0.0000E+00  0.0000E+00  0.0000E+00  0.0000E+00  0.0000E+00  0.0000E+00  0.0000E+00  0.0000E+00  0.0000E+00  0.0000E+00
     -3.023  0.1150E-01  0.1139E-01  0.5394E-04  0.5341E-04  0.5394E-04  0.5341E-04  0.5394E-04  0.5341E-04  0.0000E+00  0.0000E+00  0.0000E+00  0.0000E+00  0.0000E+00  0.0000E+00  0.0000E+00  0.0000E+00  0.0000E+00  0.0000E+00
     -2.949  0.8257E-02  0.8624E-02  0.3901E-04  0.4069E-04  0.3901E-04  0.4069E-04  0.3901E-04  0.4069E-04  0.0000E+00  0.0000E+00  0.0000E+00  0.0000E+00  0.0000E+00  0.0000E+00  0.0000E+00  0.0000E+00  0.0000E+00  0.0000E+00
     -2.875  0.3001E-02  0.3213E-02  0.1569E-04  0.1654E-04  0.1569E-04  0.1654E-04  0.1569E-04  0.1654E-04  0.0000E+00  0.0000E+00  0.0000E+00  0.0000E+00  0.0000E+00  0.0000E+00  0.0000E+00  0.0000E+00  0.0000E+00  0.0000E+00
     -2.801  0.1291E-02  0.1309E-02  0.1323E-04  0.1272E-04  0.1323E-04  0.1272E-04  0.1323E-04  0.1272E-04  0.0000E+00  0.0000E+00  0.0000E+00  0.0000E+00  0.0000E+00  0.0000E+00  0.0000E+00  0.0000E+00  0.0000E+00  0.0000E+00
     -2.727  0.2546E-02  0.2368E-02  0.4258E-04  0.3926E-04  0.4258E-04  0.3926E-04  0.4258E-04  0.3926E-04  0.0000E+00  0.0000E+00  0.0000E+00  0.0000E+00  0.0000E+00  0.0000E+00  0.0000E+00  0.0000E+00  0.0000E+00  0.0000E+00
     -2.653  0.9206E-02  0.8550E-02  0.1615E-03  0.1499E-03  0.1615E-03  0.1499E-03  0.1615E-03  0.1499E-03  0.0000E+00  0.0000E+00  0.0000E+00  0.0000E+00  0.0000E+00  0.0000E+00  0.0000E+00  0.0000E+00  0.0000E+00  0.0000E+00
     -2.579  0.2520E-01  0.2413E-01  0.4434E-03  0.4246E-03  0.4434E-03  0.4246E-03  0.4434E-03  0.4246E-03  0.0000E+00  0.0000E+00  0.0000E+00  0.0000E+00  0.0000E+00  0.0000E+00  0.0000E+00  0.0000E+00  0.0000E+00  0.0000E+00
     -2.505  0.3282E-01  0.3316E-01  0.5776E-03  0.5836E-03  0.5776E-03  0.5836E-03  0.5776E-03  0.5836E-03  0.0000E+00  0.0000E+00  0.0000E+00  0.0000E+00  0.0000E+00  0.0000E+00  0.0000E+00  0.0000E+00  0.0000E+00  0.0000E+00
     -2.431  0.1750E-01  0.1853E-01  0.3085E-03  0.3267E-03  0.3085E-03  0.3267E-03  0.3085E-03  0.3267E-03  0.0000E+00  0.0000E+00  0.0000E+00  0.0000E+00  0.0000E+00  0.0000E+00  0.0000E+00  0.0000E+00  0.0000E+00  0.0000E+00
     -2.357  0.5458E-02  0.5875E-02  0.9891E-04  0.1060E-03  0.9891E-04  0.1060E-03  0.9891E-04  0.1060E-03  0.0000E+00  0.0000E+00  0.0000E+00  0.0000E+00  0.0000E+00  0.0000E+00  0.0000E+00  0.0000E+00  0.0000E+00  0.0000E+00
     -2.282  0.2207E-02  0.2245E-02  0.5131E-04  0.5094E-04  0.5131E-04  0.5094E-04  0.5131E-04  0.5094E-04  0.0000E+00  0.0000E+00  0.0000E+00  0.0000E+00  0.0000E+00  0.0000E+00  0.0000E+00  0.0000E+00  0.0000E+00  0.0000E+00
     -2.208  0.4161E-02  0.3882E-02  0.1252E-03  0.1162E-03  0.1252E-03  0.1162E-03  0.1252E-03  0.1162E-03  0.0000E+00  0.0000E+00  0.0000E+00  0.0000E+00  0.0000E+00  0.0000E+00  0.0000E+00  0.0000E+00  0.0000E+00  0.0000E+00
     -2.134  0.1369E-01  0.1282E-01  0.4250E-03  0.3979E-03  0.4250E-03  0.3979E-03  0.4250E-03  0.3979E-03  0.0000E+00  0.0000E+00  0.0000E+00  0.0000E+00  0.0000E+00  0.0000E+00  0.0000E+00  0.0000E+00  0.0000E+00  0.0000E+00
     -2.060  0.2980E-01  0.2908E-01  0.9254E-03  0.9028E-03  0.9254E-03  0.9028E-03  0.9254E-03  0.9028E-03  0.0000E+00  0.0000E+00  0.0000E+00  0.0000E+00  0.0000E+00  0.0000E+00  0.0000E+00  0.0000E+00  0.0000E+00  0.0000E+00
     -1.986  0.2747E-01  0.2832E-01  0.8532E-03  0.8796E-03  0.8532E-03  0.8796E-03  0.8532E-03  0.8796E-03  0.0000E+00  0.0000E+00  0.0000E+00  0.0000E+00  0.0000E+00  0.0000E+00  0.0000E+00  0.0000E+00  0.0000E+00  0.0000E+00
     -1.912  0.1130E-01  0.1209E-01  0.3525E-03  0.3768E-03  0.3525E-03  0.3768E-03  0.3525E-03  0.3768E-03  0.0000E+00  0.0000E+00  0.0000E+00  0.0000E+00  0.0000E+00  0.0000E+00  0.0000E+00  0.0000E+00  0.0000E+00  0.0000E+00
     -1.838  0.3507E-02  0.3727E-02  0.1160E-03  0.1222E-03  0.1160E-03  0.1222E-03  0.1160E-03  0.1222E-03  0.0000E+00  0.0000E+00  0.0000E+00  0.0000E+00  0.0000E+00  0.0000E+00  0.0000E+00  0.0000E+00  0.0000E+00  0.0000E+00
     -1.764  0.2824E-02  0.2715E-02  0.1183E-03  0.1124E-03  0.1183E-03  0.1124E-03  0.1183E-03  0.1124E-03  0.0000E+00  0.0000E+00  0.0000E+00  0.0000E+00  0.0000E+00  0.0000E+00  0.0000E+00  0.0000E+00  0.0000E+00  0.0000E+00
     -1.690  0.8603E-02  0.7985E-02  0.3896E-03  0.3613E-03  0.3896E-03  0.3613E-03  0.3896E-03  0.3613E-03  0.0000E+00  0.0000E+00  0.0000E+00  0.0000E+00  0.0000E+00  0.0000E+00  0.0000E+00  0.0000E+00  0.0000E+00  0.0000E+00
     -1.616  0.2595E-01  0.2461E-01  0.1182E-02  0.1121E-02  0.1182E-02  0.1121E-02  0.1182E-02  0.1121E-02  0.0000E+00  0.0000E+00  0.0000E+00  0.0000E+00  0.0000E+00  0.0000E+00  0.0000E+00  0.0000E+00  0.0000E+00  0.0000E+00
     -1.541  0.4141E-01  0.4130E-01  0.1887E-02  0.1882E-02  0.1887E-02  0.1882E-02  0.1887E-02  0.1882E-02  0.0000E+00  0.0000E+00  0.0000E+00  0.0000E+00  0.0000E+00  0.0000E+00  0.0000E+00  0.0000E+00  0.0000E+00  0.0000E+00
     -1.467  0.2670E-01  0.2803E-01  0.1218E-02  0.1278E-02  0.1218E-02  0.1278E-02  0.1218E-02  0.1278E-02  0.0000E+00  0.0000E+00  0.0000E+00  0.0000E+00  0.0000E+00  0.0000E+00  0.0000E+00  0.0000E+00  0.0000E+00  0.0000E+00
     -1.393  0.9079E-02  0.9750E-02  0.4181E-03  0.4484E-03  0.4181E-03  0.4484E-03  0.4181E-03  0.4484E-03  0.0000E+00  0.0000E+00  0.0000E+00  0.0000E+00  0.0000E+00  0.0000E+00  0.0000E+00  0.0000E+00  0.0000E+00  0.0000E+00
     -1.319  0.3508E-02  0.3595E-02  0.1793E-03  0.1816E-03  0.1793E-03  0.1816E-03  0.1793E-03  0.1816E-03  0.0000E+00  0.0000E+00  0.0000E+00  0.0000E+00  0.0000E+00  0.0000E+00  0.0000E+00  0.0000E+00  0.0000E+00  0.0000E+00
     -1.245  0.6025E-02  0.5630E-02  0.3566E-03  0.3321E-03  0.3566E-03  0.3321E-03  0.3566E-03  0.3321E-03  0.0000E+00  0.0000E+00  0.0000E+00  0.0000E+00  0.0000E+00  0.0000E+00  0.0000E+00  0.0000E+00  0.0000E+00  0.0000E+00
     -1.171  0.2048E-01  0.1909E-01  0.1238E-02  0.1154E-02  0.1238E-02  0.1154E-02  0.1238E-02  0.1154E-02  0.0000E+00  0.0000E+00  0.0000E+00  0.0000E+00  0.0000E+00  0.0000E+00  0.0000E+00  0.0000E+00  0.0000E+00  0.0000E+00
     -1.097  0.5047E-01  0.4877E-01  0.3051E-02  0.2948E-02  0.3051E-02  0.2948E-02  0.3051E-02  0.2948E-02  0.0000E+00  0.0000E+00  0.0000E+00  0.0000E+00  0.0000E+00  0.0000E+00  0.0000E+00  0.0000E+00  0.0000E+00  0.0000E+00
     -1.023  0.5527E-01  0.5642E-01  0.3342E-02  0.3411E-02  0.3342E-02  0.3411E-02  0.3342E-02  0.3411E-02  0.0000E+00  0.0000E+00  0.0000E+00  0.0000E+00  0.0000E+00  0.0000E+00  0.0000E+00  0.0000E+00  0.0000E+00  0.0000E+00
     -0.949  0.2559E-01  0.2726E-01  0.1548E-02  0.1649E-02  0.1548E-02  0.1649E-02  0.1548E-02  0.1649E-02  0.0000E+00  0.0000E+00  0.0000E+00  0.0000E+00  0.0000E+00  0.0000E+00  0.0000E+00  0.0000E+00  0.0000E+00  0.0000E+00
     -0.875  0.7498E-02  0.8086E-02  0.4575E-03  0.4927E-03  0.4575E-03  0.4927E-03  0.4575E-03  0.4927E-03  0.0000E+00  0.0000E+00  0.0000E+00  0.0000E+00  0.0000E+00  0.0000E+00  0.0000E+00  0.0000E+00  0.0000E+00  0.0000E+00
     -0.800  0.2923E-02  0.2981E-02  0.1950E-03  0.1970E-03  0.1950E-03  0.1970E-03  0.1950E-03  0.1970E-03  0.0000E+00  0.0000E+00  0.0000E+00  0.0000E+00  0.0000E+00  0.0000E+00  0.0000E+00  0.0000E+00  0.0000E+00  0.0000E+00
     -0.726  0.5244E-02  0.4910E-02  0.3913E-03  0.3655E-03  0.3913E-03  0.3655E-03  0.3913E-03  0.3655E-03  0.0000E+00  0.0000E+00  0.0000E+00  0.0000E+00  0.0000E+00  0.0000E+00  0.0000E+00  0.0000E+00  0.0000E+00  0.0000E+00
     -0.652  0.1578E-01  0.1490E-01  0.1196E-02  0.1129E-02  0.1196E-02  0.1129E-02  0.1196E-02  0.1129E-02  0.0000E+00  0.0000E+00  0.0000E+00  0.0000E+00  0.0000E+00  0.0000E+00  0.0000E+00  0.0000E+00  0.0000E+00  0.0000E+00
     -0.578  0.2835E-01  0.2805E-01  0.2149E-02  0.2126E-02  0.2149E-02  0.2126E-02  0.2149E-02  0.2126E-02  0.0000E+00  0.0000E+00  0.0000E+00  0.0000E+00  0.0000E+00  0.0000E+00  0.0000E+00  0.0000E+00  0.0000E+00  0.0000E+00
     -0.504  0.2072E-01  0.2162E-01  0.1572E-02  0.1639E-02  0.1572E-02  0.1639E-02  0.1572E-02  0.1639E-02  0.0000E+00  0.0000E+00  0.0000E+00  0.0000E+00  0.0000E+00  0.0000E+00  0.0000E+00  0.0000E+00  0.0000E+00  0.0000E+00
     -0.430  0.7534E-02  0.8071E-02  0.5754E-03  0.6158E-03  0.5754E-03  0.6158E-03  0.5754E-03  0.6158E-03  0.0000E+00  0.0000E+00  0.0000E+00  0.0000E+00  0.0000E+00  0.0000E+00  0.0000E+00  0.0000E+00  0.0000E+00  0.0000E+00
     -0.356  0.2913E-02  0.2990E-02  0.2401E-03  0.2443E-03  0.2401E-03  0.2443E-03  0.2401E-03  0.2443E-03  0.0000E+00  0.0000E+00  0.0000E+00  0.0000E+00  0.0000E+00  0.0000E+00  0.0000E+00  0.0000E+00  0.0000E+00  0.0000E+00