   4   4   1   0
  0.1458137E+02  0.3878104E-09  0.3878104E-09  0.3878104E-09  0.5000000E-15
  1.000000000000000E-004
  CAR 
 unknown system                          
     21.95618438     -3.83827518  301      9.32198386      1.00000000
     -3.838  0.0000E+00  0.0000E+00  0.0000E+00  0.0000E+00
     -3.752  0.0000E+00  0.0000E+00  0.0000E+00  0.0000E+00
     -3.666  0.0000E+00  0.0000E+00  0.0000E+00  0.0000E+00
     -3.580  0.0000E+00  0.0000E+00  0.0000E+00  0.0000E+00
     -3.494  0.0000E+00  0.0000E+00  0.0000E+00  0.0000E+00
     -3.408  0.0000E+00  0.0000E+00  0.0000E+00  0.0000E+00
     -3.322  0.0000E+00  0.0000E+00  0.0000E+00  0.0000E+00
     -3.236  0.0000E+00  0.0000E+00  0.0000E+00  0.0000E+00
     -3.150  0.3269E-06  0.0000E+00  0.2810E-07  0.0000E+00
     -3.064  0.4916E-05  0.5056E-05  0.4508E-06  0.4347E-06
     -2.978  0.3592E-04  0.3465E-04  0.3540E-05  0.3414E-05
     -2.892  0.2049E-03  0.1977E-03  0.2116E-04  0.2041E-04
     -2.806  0.1125E-02  0.1086E-02  0.1179E-03  0.1138E-03
     -2.721  0.5668E-02  0.5489E-02  0.6052E-03  0.5857E-03
     -2.635  0.2169E-01  0.2118E-01  0.2470E-02  0.2407E-02
     -2.549  0.5073E-01  0.5011E-01  0.6832E-02  0.6716E-02
     -2.463  0.7437E-01  0.7393E-01  0.1323E-01  0.1307E-01
     -2.377  0.1030E+00  0.1022E+00  0.2208E-01  0.2186E-01
     -2.291  0.1220E+00  0.1221E+00  0.3257E-01  0.3236E-01
     -2.205  0.1148E+00  0.1146E+00  0.4245E-01  0.4222E-01
     -2.119  0.1493E+00  0.1484E+00  0.5529E-01  0.5499E-01
     -2.033  0.1705E+00  0.1706E+00  0.6996E-01  0.6965E-01
     -1.947  0.1633E+00  0.1632E+00  0.8401E-01  0.8370E-01
     -1.861  0.1822E+00  0.1817E+00  0.9968E-01  0.9934E-01
     -1.775  0.1712E+00  0.1718E+00  0.1144E+00  0.1141E+00
     -1.689  0.1820E+00  0.1808E+00  0.1301E+00  0.1297E+00
     -1.603  0.2372E+00  0.2367E+00  0.1505E+00  0.1500E+00
     -1.517  0.2375E+00  0.2376E+00  0.1709E+00  0.1705E+00
     -1.431  0.2348E+00  0.2350E+00  0.1911E+00  0.1907E+00
     -1.345  0.1956E+00  0.1967E+00  0.2079E+00  0.2076E+00
     -1.259  0.1877E+00  0.1867E+00  0.2241E+00  0.2237E+00
     -1.173  0.2724E+00  0.2706E+00  0.2475E+00  0.2470E+00
     -1.087  0.3026E+00  0.3032E+00  0.2736E+00  0.2731E+00
     -1.001  0.2821E+00  0.2818E+00  0.2978E+00  0.2973E+00
     -0.915  0.2885E+00  0.2893E+00  0.3227E+00  0.3222E+00
     -0.829  0.2202E+00  0.2211E+00  0.3416E+00  0.3412E+00
     -0.743  0.2499E+00  0.2482E+00  0.3631E+00  0.3626E+00
     -0.657  0.3179E+00  0.3172E+00  0.3905E+00  0.3899E+00
     -0.571  0.3093E+00  0.3099E+00  0.4171E+00  0.4166E+00
     -0.485  0.2971E+00  0.2970E+00  0.4427E+00  0.4421E+00
     -0.399  0.2889E+00  0.2891E+00  0.4675E+00  0.4670E+00
     -0.313  0.3351E+00  0.3331E+00  0.4964E+00  0.4957E+00
     -0.227  0.3888E+00  0.3893E+00  0.5298E+00  0.5292E+00
     -0.141  0.3301E+00  0.3310E+00  0.5582E+00  0.5576E+00
     -0.055  0.3301E+00  0.3298E+00  0.5866E+00  0.5861E+00
      0.031  0.2863E+00  0.2882E+00  0.6113E+00  0.6108E+00
      0.117  0.2407E+00  0.2398E+00  0.6320E+00  0.6315E+00
      0.203  0.3583E+00  0.3554E+00  0.6628E+00  0.6621E+00
      0.289  0.4238E+00  0.4238E+00  0.6993E+00  0.6986E+00
      0.375  0.4244E+00  0.4238E+00  0.7358E+00  0.7350E+00
      0.461  0.4435E+00  0.4443E+00  0.7739E+00  0.7732E+00
      0.547  0.3598E+00  0.3614E+00  0.8049E+00  0.8043E+00
      0.633  0.3309E+00  0.3309E+00  0.8334E+00  0.8328E+00
      0.719  0.3371E+00  0.3369E+00  0.8624E+00  0.8618E+00
      0.805  0.3545E+00  0.3537E+00  0.8929E+00  0.8922E+00
      0.891  0.4091E+00  0.4085E+00  0.9281E+00  0.9274E+00
      0.977  0.3625E+00  0.3640E+00  0.9593E+00  0.9587E+00
      1.063  0.3953E+00  0.3925E+00  0.9933E+00  0.9925E+00
      1.149  0.4987E+00  0.4984E+00  0.1036E+01  0.1035E+01
      1.235  0.4653E+00  0.4659E+00  0.1076E+01  0.1075E+01
      1.321  0.4528E+00  0.4536E+00  0.1115E+01  0.1114E+01
      1.407  0.3566E+00  0.3587E+00  0.1146E+01  0.1145E+01
      1.493  0.3522E+00  0.3501E+00  0.1176E+01  0.1175E+01
      1.579  0.4958E+00  0.4934E+00  0.1219E+01  0.1218E+01
      1.665  0.5124E+00  0.5137E+00  0.1263E+01  0.1262E+01
      1.751  0.4570E+00  0.4579E+00  0.1302E+01  0.1302E+01
      1.837  0.3768E+00  0.3790E+00  0.1335E+01  0.1334E+01
      1.922  0.3434E+00  0.3419E+00  0.1364E+01  0.1364E+01
      2.008  0.4607E+00  0.4588E+00  0.1404E+01  0.1403E+01
      2.094  0.4950E+00  0.4951E+00  0.1447E+01  0.1446E+01
      2.180  0.4913E+00  0.4910E+00  0.1489E+01  0.1488E+01
      2.266  0.4997E+00  0.5002E+00  0.1532E+01  0.1531E+01
      2.352  0.4792E+00  0.4781E+00  0.1573E+01  0.1572E+01
      2.438  0.6300E+00  0.6269E+00  0.1627E+01  0.1626E+01
      2.524  0.6064E+00  0.6103E+00  0.1679E+01  0.1679E+01
      2.610  0.4081E+00  0.4105E+00  0.1714E+01  0.1714E+01
      2.696  0.3822E+00  0.3822E+00  0.1747E+01  0.1747E+01
      2.782  0.3428E+00  0.3436E+00  0.1777E+01  0.1776E+01
      2.868  0.4044E+00  0.4013E+00  0.1812E+01  0.1811E+01
      2.954  0.5618E+00  0.5597E+00  0.1860E+01  0.1859E+01
      3.040  0.6243E+00  0.6233E+00  0.1914E+01  0.1913E+01
      3.126  0.6281E+00  0.6299E+00  0.1968E+01  0.1967E+01
      3.212  0.4967E+00  0.4982E+00  0.2011E+01  0.2010E+01
      3.298  0.5389E+00  0.5370E+00  0.2057E+01  0.2056E+01
      3.384  0.5814E+00  0.5817E+00  0.2107E+01  0.2106E+01
      3.470  0.5498E+00  0.5501E+00  0.2154E+01  0.2153E+01
      3.556  0.5732E+00  0.5729E+00  0.2204E+01  0.2203E+01
      3.642  0.4886E+00  0.4917E+00  0.2246E+01  0.2245E+01
      3.728  0.4384E+00  0.4366E+00  0.2283E+01  0.2283E+01
      3.814  0.5707E+00  0.5688E+00  0.2333E+01  0.2332E+01
      3.900  0.6150E+00  0.6145E+00  0.2385E+01  0.2384E+01
      3.986  0.6243E+00  0.6251E+00  0.2439E+01  0.2438E+01
      4.072  0.5246E+00  0.5268E+00  0.2484E+01  0.2483E+01
      4.158  0.5296E+00  0.5278E+00  0.2530E+01  0.2529E+01
      4.244  0.6258E+00  0.6255E+00  0.2584E+01  0.2583E+01
      4.330  0.5886E+00  0.5891E+00  0.2634E+01  0.2633E+01
      4.416  0.6438E+00  0.6423E+00  0.2690E+01  0.2689E+01
      4.502  0.6118E+00  0.6140E+00  0.2742E+01  0.2742E+01
      4.588  0.5667E+00  0.5657E+00  0.2791E+01  0.2790E+01
      4.674  0.6525E+00  0.6512E+00  0.2847E+01  0.2846E+01
      4.760  0.6649E+00  0.6658E+00  0.2905E+01  0.2904E+01
      4.846  0.5884E+00  0.5896E+00  0.2955E+01  0.2954E+01
      4.932  0.5230E+00  0.5240E+00  0.3000E+01  0.2999E+01
      5.018  0.5337E+00  0.5315E+00  0.3046E+01  0.3045E+01
      5.104  0.6438E+00  0.6427E+00  0.3102E+01  0.3101E+01
      5.190  0.6378E+00  0.6384E+00  0.3156E+01  0.3155E+01
      5.276  0.5366E+00  0.5397E+00  0.3203E+01  0.3202E+01
      5.362  0.4017E+00  0.4025E+00  0.3237E+01  0.3237E+01
      5.448  0.5457E+00  0.5410E+00  0.3284E+01  0.3283E+01
      5.534  0.7648E+00  0.7623E+00  0.3350E+01  0.3349E+01
      5.620  0.8024E+00  0.8031E+00  0.3419E+01  0.3418E+01
      5.706  0.7604E+00  0.7606E+00  0.3484E+01  0.3483E+01
      5.792  0.7428E+00  0.7438E+00  0.3548E+01  0.3547E+01
      5.878  0.6896E+00  0.6912E+00  0.3608E+01  0.3607E+01
      5.964  0.6095E+00  0.6095E+00  0.3660E+01  0.3659E+01
      6.050  0.6182E+00  0.6172E+00  0.3713E+01  0.3712E+01
      6.136  0.6504E+00  0.6508E+00  0.3769E+01  0.3768E+01
      6.222  0.6364E+00  0.6382E+00  0.3824E+01  0.3823E+01
      6.308  0.6397E+00  0.6390E+00  0.3879E+01  0.3878E+01
      6.394  0.7111E+00  0.7086E+00  0.3940E+01  0.3939E+01
      6.480  0.7818E+00  0.7815E+00  0.4008E+01  0.4007E+01
      6.565  0.6943E+00  0.6965E+00  0.4067E+01  0.4066E+01
      6.651  0.7141E+00  0.7123E+00  0.4129E+01  0.4128E+01
      6.737  0.8125E+00  0.8117E+00  0.4199E+01  0.4198E+01
      6.823  0.7644E+00  0.7664E+00  0.4265E+01  0.4264E+01
      6.909  0.6337E+00  0.6354E+00  0.4319E+01  0.4318E+01
      6.995  0.5643E+00  0.5642E+00  0.4368E+01  0.4367E+01
      7.081  0.6139E+00  0.6128E+00  0.4421E+01  0.4420E+01
      7.167  0.6201E+00  0.6212E+00  0.4474E+01  0.4473E+01
      7.253  0.5882E+00  0.5884E+00  0.4525E+01  0.4524E+01
      7.339  0.6117E+00  0.6109E+00  0.4577E+01  0.4576E+01
      7.425  0.6399E+00  0.6389E+00  0.4632E+01  0.4631E+01
      7.511  0.7531E+00  0.7512E+00  0.4697E+01  0.4696E+01
      7.597  0.7694E+00  0.7710E+00  0.4763E+01  0.4762E+01
      7.683  0.6814E+00  0.6805E+00  0.4822E+01  0.4821E+01
      7.769  0.7173E+00  0.7167E+00  0.4884E+01  0.4882E+01
      7.855  0.6602E+00  0.6611E+00  0.4940E+01  0.4939E+01
      7.941  0.6612E+00  0.6607E+00  0.4997E+01  0.4996E+01
      8.027  0.6439E+00  0.6450E+00  0.5053E+01  0.5052E+01
      8.113  0.7097E+00  0.7069E+00  0.5114E+01  0.5113E+01
      8.199  0.8678E+00  0.8652E+00  0.5189E+01  0.5187E+01
      8.285  0.7897E+00  0.7944E+00  0.5256E+01  0.5255E+01
      8.371  0.5701E+00  0.5722E+00  0.5306E+01  0.5305E+01
      8.457  0.6217E+00  0.6187E+00  0.5359E+01  0.5358E+01
      8.543  0.7650E+00  0.7643E+00  0.5425E+01  0.5424E+01
      8.629  0.6424E+00  0.6448E+00  0.5480E+01  0.5479E+01
      8.715  0.6377E+00  0.6362E+00  0.5535E+01  0.5534E+01
      8.801  0.8136E+00  0.8103E+00  0.5605E+01  0.5604E+01
      8.887  0.8556E+00  0.8569E+00  0.5679E+01  0.5677E+01
      8.973  0.7740E+00  0.7734E+00  0.5745E+01  0.5744E+01
      9.059  0.8188E+00  0.8180E+00  0.5816E+01  0.5814E+01
      9.145  0.6825E+00  0.6858E+00  0.5874E+01  0.5873E+01
      9.231  0.6624E+00  0.6599E+00  0.5931E+01  0.5930E+01
      9.317  0.7596E+00  0.7588E+00  0.5997E+01  0.5995E+01
      9.403  0.7153E+00  0.7172E+00  0.6058E+01  0.6057E+01
      9.489  0.6003E+00  0.6035E+00  0.6110E+01  0.6109E+01
      9.575  0.5295E+00  0.5306E+00  0.6156E+01  0.6155E+01
      9.661  0.5870E+00  0.5844E+00  0.6206E+01  0.6205E+01
      9.747  0.6274E+00  0.6258E+00  0.6260E+01  0.6259E+01
      9.833  0.6986E+00  0.6952E+00  0.6320E+01  0.6319E+01
      9.919  0.8974E+00  0.8937E+00  0.6398E+01  0.6396E+01
     10.005  0.1032E+01  0.1030E+01  0.6486E+01  0.6484E+01
     10.091  0.1027E+01  0.1027E+01  0.6575E+01  0.6573E+01
     10.177  0.9015E+00  0.9054E+00  0.6652E+01  0.6651E+01
     10.263  0.7614E+00  0.7617E+00  0.6718E+01  0.6716E+01
     10.349  0.8273E+00  0.8280E+00  0.6789E+01  0.6787E+01
     10.435  0.8191E+00  0.8207E+00  0.6860E+01  0.6858E+01
     10.521  0.7842E+00  0.7844E+00  0.6927E+01  0.6926E+01
     10.607  0.6879E+00  0.6914E+00  0.6986E+01  0.6985E+01
     10.693  0.5649E+00  0.5656E+00  0.7035E+01  0.7034E+01
     10.779  0.6412E+00  0.6386E+00  0.7090E+01  0.7089E+01
     10.865  0.7688E+00  0.7662E+00  0.7156E+01  0.7155E+01
     10.951  0.8624E+00  0.8591E+00  0.7230E+01  0.7229E+01
     11.037  0.8460E+00  0.8476E+00  0.7303E+01  0.7302E+01
     11.123  0.8850E+00  0.8827E+00  0.7379E+01  0.7377E+01
     11.208  0.9286E+00  0.9285E+00  0.7459E+01  0.7457E+01
     11.294  0.7753E+00  0.7818E+00  0.7526E+01  0.7525E+01
     11.380  0.5769E+00  0.5790E+00  0.7576E+01  0.7574E+01
     11.466  0.6862E+00  0.6810E+00  0.7635E+01  0.7633E+01
     11.552  0.8292E+00  0.8271E+00  0.7706E+01  0.7704E+01
     11.638  0.7512E+00  0.7552E+00  0.7771E+01  0.7769E+01
     11.724  0.6668E+00  0.6654E+00  0.7828E+01  0.7827E+01
     11.810  0.7646E+00  0.7597E+00  0.7894E+01  0.7892E+01
     11.896  0.9054E+00  0.9010E+00  0.7972E+01  0.7969E+01
     11.982  0.1048E+01  0.1046E+01  0.8062E+01  0.8059E+01
     12.068  0.1051E+01  0.1059E+01  0.8152E+01  0.8150E+01
     12.154  0.7745E+00  0.7805E+00  0.8219E+01  0.8218E+01
     12.240  0.7214E+00  0.7201E+00  0.8281E+01  0.8280E+01
     12.326  0.7936E+00  0.7914E+00  0.8349E+01  0.8348E+01
     12.412  0.7816E+00  0.7770E+00  0.8417E+01  0.8415E+01
     12.498  0.9150E+00  0.9089E+00  0.8495E+01  0.8493E+01
     12.584  0.9718E+00  0.9740E+00  0.8579E+01  0.8577E+01
     12.670  0.8742E+00  0.8763E+00  0.8654E+01  0.8652E+01
     12.756  0.7728E+00  0.7760E+00  0.8721E+01  0.8719E+01
     12.842  0.7381E+00  0.7361E+00  0.8784E+01  0.8782E+01
     12.928  0.8440E+00  0.8446E+00  0.8857E+01  0.8855E+01
     13.014  0.9066E+00  0.9096E+00  0.8935E+01  0.8933E+01
     13.100  0.8972E+00  0.8968E+00  0.9012E+01  0.9010E+01
     13.186  0.7578E+00  0.7614E+00  0.9077E+01  0.9076E+01
     13.272  0.6664E+00  0.6624E+00  0.9135E+01  0.9133E+01
     13.358  0.8313E+00  0.8258E+00  0.9206E+01  0.9204E+01
     13.444  0.1008E+01  0.9973E+00  0.9293E+01  0.9290E+01
     13.530  0.1157E+01  0.1157E+01  0.9393E+01  0.9389E+01
     13.616  0.9091E+00  0.9227E+00  0.9471E+01  0.9469E+01
     13.702  0.7064E+00  0.7098E+00  0.9532E+01  0.9530E+01
     13.788  0.7641E+00  0.7636E+00  0.9597E+01  0.9596E+01
     13.874  0.8952E+00  0.8890E+00  0.9674E+01  0.9672E+01
     13.960  0.1135E+01  0.1124E+01  0.9772E+01  0.9769E+01
     14.046  0.1238E+01  0.1237E+01  0.9879E+01  0.9875E+01
     14.132  0.1101E+01  0.1110E+01  0.9973E+01  0.9971E+01
     14.218  0.8952E+00  0.9015E+00  0.1005E+02  0.1005E+02
     14.304  0.7368E+00  0.7362E+00  0.1011E+02  0.1011E+02
     14.390  0.8326E+00  0.8269E+00  0.1019E+02  0.1018E+02
     14.476  0.8650E+00  0.8695E+00  0.1026E+02  0.1026E+02
     14.562  0.6836E+00  0.6865E+00  0.1032E+02  0.1032E+02
     14.648  0.7258E+00  0.7199E+00  0.1038E+02  0.1038E+02
     14.734  0.8815E+00  0.8778E+00  0.1046E+02  0.1045E+02
     14.820  0.1013E+01  0.1011E+01  0.1054E+02  0.1054E+02
     14.906  0.9563E+00  0.9641E+00  0.1063E+02  0.1062E+02
     14.992  0.8267E+00  0.8293E+00  0.1070E+02  0.1070E+02
     15.078  0.9814E+00  0.9752E+00  0.1078E+02  0.1078E+02
     15.164  0.1061E+01  0.1061E+01  0.1087E+02  0.1087E+02
     15.250  0.8487E+00  0.8554E+00  0.1095E+02  0.1094E+02
     15.336  0.5665E+00  0.5688E+00  0.1100E+02  0.1099E+02
     15.422  0.5187E+00  0.5003E+00  0.1104E+02  0.1104E+02
     15.508  0.7032E+00  0.6684E+00  0.1110E+02  0.1109E+02
     15.594  0.8606E+00  0.8725E+00  0.1117E+02  0.1117E+02
     15.680  0.7895E+00  0.8234E+00  0.1124E+02  0.1124E+02
     15.766  0.4800E+00  0.4936E+00  0.1128E+02  0.1128E+02
     15.851  0.3234E+00  0.3267E+00  0.1131E+02  0.1131E+02
     15.937  0.2203E+00  0.2254E+00  0.1133E+02  0.1133E+02
     16.023  0.1890E+00  0.1892E+00  0.1135E+02  0.1135E+02
     16.109  0.3264E+00  0.3228E+00  0.1138E+02  0.1137E+02
     16.195  0.4856E+00  0.4893E+00  0.1142E+02  0.1142E+02
     16.281  0.5957E+00  0.6057E+00  0.1147E+02  0.1147E+02
     16.367  0.4550E+00  0.4531E+00  0.1151E+02  0.1151E+02
     16.453  0.2292E+00  0.2239E+00  0.1153E+02  0.1153E+02
     16.539  0.2071E+00  0.2046E+00  0.1154E+02  0.1154E+02
     16.625  0.2001E+00  0.1990E+00  0.1156E+02  0.1156E+02
     16.711  0.2442E+00  0.2427E+00  0.1158E+02  0.1158E+02
     16.797  0.2109E+00  0.2125E+00  0.1160E+02  0.1160E+02
     16.883  0.2286E+00  0.2256E+00  0.1162E+02  0.1162E+02
     16.969  0.3061E+00  0.3063E+00  0.1165E+02  0.1165E+02
     17.055  0.2291E+00  0.2326E+00  0.1167E+02  0.1167E+02
     17.141  0.1929E+00  0.1905E+00  0.1168E+02  0.1168E+02
     17.227  0.2851E+00  0.2838E+00  0.1171E+02  0.1171E+02
     17.313  0.2785E+00  0.2804E+00  0.1173E+02  0.1173E+02
     17.399  0.2081E+00  0.2106E+00  0.1175E+02  0.1175E+02
     17.485  0.9919E-01  0.1020E+00  0.1176E+02  0.1176E+02
     17.571  0.6760E-01  0.6628E-01  0.1176E+02  0.1176E+02
     17.657  0.1375E+00  0.1344E+00  0.1178E+02  0.1178E+02
     17.743  0.1542E+00  0.1560E+00  0.1179E+02  0.1179E+02
     17.829  0.1358E+00  0.1354E+00  0.1180E+02  0.1180E+02
     17.915  0.1817E+00  0.1817E+00  0.1182E+02  0.1182E+02
     18.001  0.1117E+00  0.1149E+00  0.1183E+02  0.1183E+02
     18.087  0.5116E-01  0.5104E-01  0.1183E+02  0.1183E+02
     18.173  0.9869E-01  0.9472E-01  0.1184E+02  0.1184E+02
     18.259  0.1854E+00  0.1840E+00  0.1186E+02  0.1185E+02
     18.345  0.1852E+00  0.1866E+00  0.1187E+02  0.1187E+02
     18.431  0.1689E+00  0.1676E+00  0.1189E+02  0.1189E+02
     18.517  0.1773E+00  0.1756E+00  0.1190E+02  0.1190E+02
     18.603  0.1279E+00  0.1333E+00  0.1191E+02  0.1191E+02
     18.689  0.4074E-01  0.4378E-01  0.1192E+02  0.1192E+02
     18.775  0.1079E-01  0.1136E-01  0.1192E+02  0.1192E+02
     18.861  0.1493E-01  0.1447E-01  0.1192E+02  0.1192E+02
     18.947  0.4389E-01  0.4286E-01  0.1192E+02  0.1192E+02
     19.033  0.6348E-01  0.6369E-01  0.1193E+02  0.1193E+02
     19.119  0.8298E-01  0.8248E-01  0.1193E+02  0.1193E+02
     19.205  0.1225E+00  0.1224E+00  0.1194E+02  0.1194E+02
     19.291  0.7515E-01  0.7627E-01  0.1195E+02  0.1195E+02
     19.377  0.3877E-01  0.3834E-01  0.1195E+02  0.1195E+02
     19.463  0.7449E-01  0.7238E-01  0.1196E+02  0.1196E+02
     19.549  0.1010E+00  0.1018E+00  0.1197E+02  0.1197E+02
     19.635  0.4537E-01  0.4736E-01  0.1197E+02  0.1197E+02
     19.721  0.1046E-01  0.1105E-01  0.1197E+02  0.1197E+02
     19.807  0.2056E-02  0.2115E-02  0.1197E+02  0.1197E+02
     19.893  0.4950E-03  0.1262E-03  0.1197E+02  0.1197E+02
     19.979  0.2694E-02  0.6997E-03  0.1197E+02  0.1197E+02
     20.065  0.1315E-01  0.3768E-02  0.1198E+02  0.1197E+02
     20.151  0.4120E-01  0.1750E-01  0.1198E+02  0.1198E+02
     20.237  0.4693E-01  0.4661E-01  0.1198E+02  0.1198E+02
     20.323  0.1815E-01  0.4188E-01  0.1199E+02  0.1198E+02
     20.409  0.5678E-02  0.1502E-01  0.1199E+02  0.1199E+02
     20.494  0.9995E-02  0.1091E-01  0.1199E+02  0.1199E+02
     20.580  0.3390E-01  0.3067E-01  0.1199E+02  0.1199E+02
     20.666  0.5350E-01  0.5143E-01  0.1199E+02  0.1199E+02
     20.752  0.3619E-01  0.4003E-01  0.1200E+02  0.1200E+02
     20.838  0.2279E-01  0.2507E-01  0.1200E+02  0.1200E+02
     20.924  0.9003E-02  0.9841E-02  0.1200E+02  0.1200E+02
     21.010  0.1926E-02  0.2127E-02  0.1200E+02  0.1200E+02
     21.096  0.3467E-03  0.3688E-03  0.1200E+02  0.1200E+02
     21.182  0.0000E+00  0.6674E-04  0.1200E+02  0.1200E+02
     21.268  0.0000E+00  0.0000E+00  0.1200E+02  0.1200E+02
     21.354  0.0000E+00  0.0000E+00  0.1200E+02  0.1200E+02
     21.440  0.0000E+00  0.0000E+00  0.1200E+02  0.1200E+02
     21.526  0.0000E+00  0.0000E+00  0.1200E+02  0.1200E+02
     21.612  0.0000E+00  0.0000E+00  0.1200E+02  0.1200E+02
     21.698  0.0000E+00  0.0000E+00  0.1200E+02  0.1200E+02
     21.784  0.0000E+00  0.0000E+00  0.1200E+02  0.1200E+02
     21.870  0.0000E+00  0.0000E+00  0.1200E+02  0.1200E+02
     21.956  0.0000E+00  0.0000E+00  0.1200E+02  0.1200E+02
     21.95618438     -3.83827518  301      9.32198386      1.00000000
     -3.838  0.0000E+00  0.0000E+00  0.0000E+00  0.0000E+00  0.0000E+00  0.0000E+00  0.0000E+00  0.0000E+00  0.0000E+00  0.0000E+00  0.0000E+00  0.0000E+00  0.0000E+00  0.0000E+00  0.0000E+00  0.0000E+00  0.0000E+00  0.0000E+00
     -3.752  0.0000E+00  0.0000E+00  0.0000E+00  0.0000E+00  0.0000E+00  0.0000E+00  0.0000E+00  0.0000E+00  0.0000E+00  0.0000E+00  0.0000E+00  0.0000E+00  0.0000E+00  0.0000E+00  0.0000E+00  0.0000E+00  0.0000E+00  0.0000E+00
     -3.666  0.0000E+00  0.0000E+00  0.0000E+00  0.0000E+00  0.0000E+00  0.0000E+00  0.0000E+00  0.0000E+00  0.0000E+00  0.0000E+00  0.0000E+00  0.0000E+00  0.0000E+00  0.0000E+00  0.0000E+00  0.0000E+00  0.0000E+00  0.0000E+00
     -3.580  0.0000E+00  0.0000E+00  0.0000E+00  0.0000E+00  0.0000E+00  0.0000E+00  0.0000E+00  0.0000E+00  0.0000E+00  0.0000E+00  0.0000E+00  0.0000E+00  0.0000E+00  0.0000E+00  0.0000E+00  0.0000E+00  0.0000E+00  0.0000E+00
     -3.494  0.0000E+00  0.0000E+00  0.0000E+00  0.0000E+00  0.0000E+00  0.0000E+00  0.0000E+00  0.0000E+00  0.0000E+00  0.0000E+00  0.0000E+00  0.0000E+00  0.0000E+00  0.0000E+00  0.0000E+00  0.0000E+00  0.0000E+00  0.0000E+00
     -3.408  0.0000E+00  0.0000E+00  0.0000E+00  0.0000E+00  0.0000E+00  0.0000E+00  0.0000E+00  0.0000E+00  0.0000E+00  0.0000E+00  0.0000E+00  0.0000E+00  0.0000E+00  0.0000E+00  0.0000E+00  0.0000E+00  0.0000E+00  0.0000E+00
     -3.322  0.0000E+00  0.0000E+00  0.0000E+00  0.0000E+00  0.0000E+00  0.0000E+00  0.0000E+00  0.0000E+00  0.0000E+00  0.0000E+00  0.0000E+00  0.0000E+00  0.0000E+00  0.0000E+00  0.0000E+00  0.0000E+00  0.0000E+00  0.0000E+00
     -3.236  0.0000E+00  0.0000E+00  0.0000E+00  0.0000E+00  0.0000E+00  0.0000E+00  0.0000E+00  0.0000E+00  0.0000E+00  0.0000E+00  0.0000E+00  0.0000E+00  0.0000E+00  0.0000E+00  0.0000E+00  0.0000E+00  0.0000E+00  0.0000E+00
     -3.150  0.2401E-07  0.0000E+00  0.7279E-23  0.0000E+00  0.7279E-23  0.0000E+00  0.7279E-23  0.0000E+00  0.0000E+00  0.0000E+00  0.0000E+00  0.0000E+00  0.0000E+00  0.0000E+00  0.0000E+00  0.0000E+00  0.0000E+00  0.0000E+00
     -3.064  0.3600E-06  0.3700E-06  0.3763E-09  0.3628E-09  0.3763E-09  0.3628E-09  0.3763E-09  0.3628E-09  0.0000E+00  0.0000E+00  0.0000E+00  0.0000E+00  0.0000E+00  0.0000E+00  0.0000E+00  0.0000E+00  0.0000E+00  0.0000E+00
     -2.978  0.2626E-05  0.2530E-05  0.4344E-08  0.4188E-08  0.4344E-08  0.4188E-08  0.4344E-08  0.4188E-08  0.0000E+00  0.0000E+00  0.0000E+00  0.0000E+00  0.0000E+00  0.0000E+00  0.0000E+00  0.0000E+00  0.0000E+00  0.0000E+00
     -2.892  0.1497E-04  0.1443E-04  0.2757E-07  0.2659E-07  0.2757E-07  0.2659E-07  0.2757E-07  0.2659E-07  0.0000E+00  0.0000E+00  0.0000E+00  0.0000E+00  0.0000E+00  0.0000E+00  0.0000E+00  0.0000E+00  0.0000E+00  0.0000E+00
     -2.806  0.8216E-04  0.7925E-04  0.1590E-06  0.1534E-06  0.1590E-06  0.1534E-06  0.1590E-06  0.1534E-06  0.0000E+00  0.0000E+00  0.0000E+00  0.0000E+00  0.0000E+00  0.0000E+00  0.0000E+00  0.0000E+00  0.0000E+00  0.0000E+00
     -2.721  0.4137E-03  0.4004E-03  0.8617E-06  0.8323E-06  0.8617E-06  0.8323E-06  0.8617E-06  0.8323E-06  0.0000E+00  0.0000E+00  0.0000E+00  0.0000E+00  0.0000E+00  0.0000E+00  0.0000E+00  0.0000E+00  0.0000E+00  0.0000E+00
     -2.635  0.1581E-02  0.1543E-02  0.3923E-05  0.3811E-05  0.3923E-05  0.3811E-05  0.3923E-05  0.3811E-05  0.0000E+00  0.0000E+00  0.0000E+00  0.0000E+00  0.0000E+00  0.0000E+00  0.0000E+00  0.0000E+00  0.0000E+00  0.0000E+00
     -2.549  0.3689E-02  0.3642E-02  0.1238E-04  0.1214E-04  0.1238E-04  0.1214E-04  0.1238E-04  0.1214E-04  0.0000E+00  0.0000E+00  0.0000E+00  0.0000E+00  0.0000E+00  0.0000E+00  0.0000E+00  0.0000E+00  0.0000E+00  0.0000E+00
     -2.463  0.5382E-02  0.5346E-02  0.2696E-04  0.2655E-04  0.2696E-04  0.2655E-04  0.2696E-04  0.2655E-04  0.0000E+00  0.0000E+00  0.0000E+00  0.0000E+00  0.0000E+00  0.0000E+00  0.0000E+00  0.0000E+00  0.0000E+00  0.0000E+00
     -2.377  0.7405E-02  0.7347E-02  0.5311E-04  0.5244E-04  0.5311E-04  0.5244E-04  0.5311E-04  0.5244E-04  0.0000E+00  0.0000E+00  0.0000E+00  0.0000E+00  0.0000E+00  0.0000E+00  0.0000E+00  0.0000E+00  0.0000E+00  0.0000E+00
     -2.291  0.8731E-02  0.8731E-02  0.7668E-04  0.7640E-04  0.7668E-04  0.7640E-04  0.7668E-04  0.7640E-04  0.0000E+00  0.0000E+00  0.0000E+00  0.0000E+00  0.0000E+00  0.0000E+00  0.0000E+00  0.0000E+00  0.0000E+00  0.0000E+00
     -2.205  0.8157E-02  0.8138E-02  0.9241E-04  0.9169E-04  0.9241E-04  0.9169E-04  0.9241E-04  0.9169E-04  0.0000E+00  0.0000E+00  0.0000E+00  0.0000E+00  0.0000E+00  0.0000E+00  0.0000E+00  0.0000E+00  0.0000E+00  0.0000E+00
     -2.119  0.1053E-01  0.1045E-01  0.1471E-03  0.1458E-03  0.1471E-03  0.1458E-03  0.1471E-03  0.1458E-03  0.0000E+00  0.0000E+00  0.0000E+00  0.0000E+00  0.0000E+00  0.0000E+00  0.0000E+00  0.0000E+00  0.0000E+00  0.0000E+00
     -2.033  0.1195E-01  0.1195E-01  0.1887E-03  0.1883E-03  0.1887E-03  0.1883E-03  0.1887E-03  0.1883E-03  0.0000E+00  0.0000E+00  0.0000E+00  0.0000E+00  0.0000E+00  0.0000E+00  0.0000E+00  0.0000E+00  0.0000E+00  0.0000E+00
     -1.947  0.1137E-01  0.1136E-01  0.2067E-03  0.2059E-03  0.2067E-03  0.2059E-03  0.2067E-03  0.2059E-03  0.0000E+00  0.0000E+00  0.0000E+00  0.0000E+00  0.0000E+00  0.0000E+00  0.0000E+00  0.0000E+00  0.0000E+00  0.0000E+00
     -1.861  0.1259E-01  0.1256E-01  0.2605E-03  0.2593E-03  0.2605E-03  0.2593E-03  0.2605E-03  0.2593E-03  0.0000E+00  0.0000E+00  0.0000E+00  0.0000E+00  0.0000E+00  0.0000E+00  0.0000E+00  0.0000E+00  0.0000E+00  0.0000E+00
     -1.775  0.1177E-01  0.1180E-01  0.2675E-03  0.2677E-03  0.2675E-03  0.2677E-03  0.2675E-03  0.2677E-03  0.0000E+00  0.0000E+00  0.0000E+00  0.0000E+00  0.0000E+00  0.0000E+00  0.0000E+00  0.0000E+00  0.0000E+00  0.0000E+00
     -1.689  0.1239E-01  0.1230E-01  0.3231E-03  0.3201E-03  0.3231E-03  0.3201E-03  0.3231E-03  0.3201E-03  0.0000E+00  0.0000E+00  0.0000E+00  0.0000E+00  0.0000E+00  0.0000E+00  0.0000E+00  0.0000E+00  0.0000E+00  0.0000E+00
     -1.603  0.1605E-01  0.1600E-01  0.4525E-03  0.4507E-03  0.4525E-03  0.4507E-03  0.4525E-03  0.4507E-03  0.0000E+00  0.0000E+00  0.0000E+00  0.0000E+00  0.0000E+00  0.0000E+00  0.0000E+00  0.0000E+00  0.0000E+00  0.0000E+00
     -1.517  0.1597E-01  0.1597E-01  0.4844E-03  0.4838E-03  0.4844E-03  0.4838E-03  0.4844E-03  0.4838E-03  0.0000E+00  0.0000E+00  0.0000E+00  0.0000E+00  0.0000E+00  0.0000E+00  0.0000E+00  0.0000E+00  0.0000E+00  0.0000E+00
     -1.431  0.1569E-01  0.1569E-01  0.5132E-03  0.5129E-03  0.5132E-03  0.5129E-03  0.5132E-03  0.5129E-03  0.0000E+00  0.0000E+00  0.0000E+00  0.0000E+00  0.0000E+00  0.0000E+00  0.0000E+00  0.0000E+00  0.0000E+00  0.0000E+00
     -1.345  0.1299E-01  0.1305E-01  0.4536E-03  0.4553E-03  0.4536E-03  0.4553E-03  0.4536E-03  0.4553E-03  0.0000E+00  0.0000E+00  0.0000E+00  0.0000E+00  0.0000E+00  0.0000E+00  0.0000E+00  0.0000E+00  0.0000E+00  0.0000E+00
     -1.259  0.1233E-01  0.1225E-01  0.4774E-03  0.4737E-03  0.4774E-03  0.4737E-03  0.4774E-03  0.4737E-03  0.0000E+00  0.0000E+00  0.0000E+00  0.0000E+00  0.0000E+00  0.0000E+00  0.0000E+00  0.0000E+00  0.0000E+00  0.0000E+00
     -1.173  0.1776E-01  0.1763E-01  0.7358E-03  0.7301E-03  0.7358E-03  0.7301E-03  0.7358E-03  0.7301E-03  0.0000E+00  0.0000E+00  0.0000E+00  0.0000E+00  0.0000E+00  0.0000E+00  0.0000E+00  0.0000E+00  0.0000E+00  0.0000E+00
     -1.087  0.1963E-01  0.1965E-01  0.8487E-03  0.8492E-03  0.8487E-03  0.8492E-03  0.8487E-03  0.8492E-03  0.0000E+00  0.0000E+00  0.0000E+00  0.0000E+00  0.0000E+00  0.0000E+00  0.0000E+00  0.0000E+00  0.0000E+00  0.0000E+00
     -1.001  0.1816E-01  0.1813E-01  0.8360E-03  0.8338E-03  0.8360E-03  0.8338E-03  0.8360E-03  0.8338E-03  0.0000E+00  0.0000E+00  0.0000E+00  0.0000E+00  0.0000E+00  0.0000E+00  0.0000E+00  0.0000E+00  0.0000E+00  0.0000E+00
     -0.915  0.1845E-01  0.1849E-01  0.8915E-03  0.8932E-03  0.8915E-03  0.8932E-03  0.8915E-03  0.8932E-03  0.0000E+00  0.0000E+00  0.0000E+00  0.0000E+00  0.0000E+00  0.0000E+00  0.0000E+00  0.0000E+00  0.0000E+00  0.0000E+00
     -0.829  0.1398E-01  0.1403E-01  0.7129E-03  0.7148E-03  0.7129E-03  0.7148E-03  0.7129E-03  0.7148E-03  0.0000E+00  0.0000E+00  0.0000E+00  0.0000E+00  0.0000E+00  0.0000E+00  0.0000E+00  0.0000E+00  0.0000E+00  0.0000E+00
     -0.743  0.1570E-01  0.1558E-01  0.8625E-03  0.8553E-03  0.8625E-03  0.8553E-03  0.8625E-03  0.8553E-03  0.0000E+00  0.0000E+00  0.0000E+00  0.0000E+00  0.0000E+00  0.0000E+00  0.0000E+00  0.0000E+00  0.0000E+00  0.0000E+00
     -0.657  0.1985E-01  0.1979E-01  0.1135E-02  0.1132E-02  0.1135E-02  0.1132E-02  0.1135E-02  0.1132E-02  0.0000E+00  0.0000E+00  0.0000E+00  0.0000E+00  0.0000E+00  0.0000E+00  0.0000E+00  0.0000E+00  0.0000E+00  0.0000E+00
     -0.571  0.1919E-01  0.1921E-01  0.1145E-02  0.1145E-02  0.1145E-02  0.1145E-02  0.1145E-02  0.1145E-02  0.0000E+00  0.0000E+00  0.0000E+00  0.0000E+00  0.0000E+00  0.0000E+00  0.0000E+00  0.0000E+00  0.0000E+00  0.0000E+00
     -0.485  0.1828E-01  0.1826E-01  0.1147E-02  0.1145E-02  0.1147E-02  0.1145E-02  0.1147E-02  0.1145E-02  0.0000E+00  0.0000E+00  0.0000E+00  0.0000E+00  0.0000E+00  0.0000E+00  0.0000E+00  0.0000E+00  0.0000E+00  0.0000E+00
     -0.399  0.1764E-01  0.1763E-01  0.1159E-02  0.1159E-02  0.1159E-02  0.1159E-02  0.1159E-02  0.1159E-02  0.0000E+00  0.0000E+00  0.0000E+00  0.0000E+00  0.0000E+00  0.0000E+00  0.0000E+00  0.0000E+00  0.0000E+00  0.0000E+00
     -0.313  0.2026E-01  0.2012E-01  0.1404E-02  0.1394E-02  0.1404E-02  0.1394E-02  0.1404E-02  0.1394E-02  0.0000E+00  0.0000E+00  0.0000E+00  0.0000E+00  0.0000E+00  0.0000E+00  0.0000E+00  0.0000E+00  0.0000E+00  0.0000E+00
     -0.227  0.2338E-01  0.2339E-01  0.1668E-02  0.1669E-02  0.1668E-02  0.1669E-02  0.1668E-02  0.1669E-02  0.0000E+00  0.0000E+00  0.0000E+00  0.0000E+00  0.0000E+00  0.0000E+00  0.0000E+00  0.0000E+00  0.0000E+00  0.0000E+00
     -0.141  0.1971E-01  0.1974E-01  0.1460E-02  0.1462E-02  0.1460E-02  0.1462E-02  0.1460E-02  0.1462E-02  0.0000E+00  0.0000E+00  0.0000E+00  0.0000E+00  0.0000E+00  0.0000E+00  0.0000E+00  0.0000E+00  0.0000E+00  0.0000E+00
     -0.055  0.1953E-01  0.1950E-01  0.1513E-02  0.1510E-02  0.1513E-02  0.1510E-02  0.1513E-02  0.1510E-02  0.0000E+00  0.0000E+00  0.0000E+00  0.0000E+00  0.0000E+00  0.0000E+00  0.0000E+00  0.0000E+00  0.0000E+00  0.0000E+00
      0.031  0.1684E-01  0.1694E-01  0.1345E-02  0.1352E-02  0.1345E-02  0.1352E-02  0.1345E-02  0.1352E-02  0.0000E+00  0.0000E+00  0.0000E+00  0.0000E+00  0.0000E+00  0.0000E+00  0.0000E+00  0.0000E+00  0.0000E+00  0.0000E+00
      0.117  0.1399E-01  0.1392E-01  0.1181E-02  0.1175E-02  0.1181E-02  0.1175E-02  0.1181E-02  0.1175E-02  0.0000E+00  0.0000E+00  0.0000E+00  0.0000E+00  0.0000E+00  0.0000E+00  0.0000E+00  0.0000E+00  0.0000E+00  0.0000E+00
      0.203  0.2062E-01  0.2044E-01  0.1817E-02  0.1802E-02  0.1817E-02  0.1802E-02  0.1817E-02  0.1802E-02  0.0000E+00  0.0000E+00  0.0000E+00  0.0000E+00  0.0000E+00  0.0000E+00  0.0000E+00  0.0000E+00  0.0000E+00  0.0000E+00
      0.289  0.2425E-01  0.2423E-01  0.2193E-02  0.2192E-02  0.2193E-02  0.2192E-02  0.2193E-02  0.2192E-02  0.0000E+00  0.0000E+00  0.0000E+00  0.0000E+00  0.0000E+00  0.0000E+00  0.0000E+00  0.0000E+00  0.0000E+00  0.0000E+00
      0.375  0.2409E-01  0.2403E-01  0.2258E-02  0.2253E-02  0.2258E-02  0.2253E-02  0.2258E-02  0.2253E-02  0.0000E+00  0.0000E+00  0.0000E+00  0.0000E+00  0.0000E+00  0.0000E+00  0.0000E+00  0.0000E+00  0.0000E+00  0.0000E+00
      0.461  0.2499E-01  0.2501E-01  0.2414E-02  0.2416E-02  0.2414E-02  0.2416E-02  0.2414E-02  0.2416E-02  0.0000E+00  0.0000E+00  0.0000E+00  0.0000E+00  0.0000E+00  0.0000E+00  0.0000E+00  0.0000E+00  0.0000E+00  0.0000E+00