 vasp.6.1.0 28Jan20 (build Jun 11 2020 16:13:15) complex                        
  
 executed on             LinuxIFC date 2021.04.16  00:03:13
 running on    4 total cores
 distrk:  each k-point on    4 cores,    1 groups
 distr:  one band on NCORE=   1 cores,    4 groups


--------------------------------------------------------------------------------------------------------


 INCAR:
 POTCAR:    PAW_PBE Al 04Jan2001                  
 POTCAR:    PAW_PBE Al 04Jan2001                  
   SHA256 =  17880443556af62b473fe41b62a467bd001ad55d2cabe504a3f22e34d4e9db96 Al/POTCAR             
   COPYR  = (c) Copyright 04Jan2001 Georg Kresse                                                    
   COPYR  = This file is part of the software VASP. Any use, copying, and all other rights are regul
   COPYR  = If you do not have a valid VASP license, you may not use, copy or distribute this file. 
   VRHFIN =Al: s2p1                                                                                 
   LEXCH  = PE                                                                                      
   EATOM  =    53.5387 eV,    3.9350 Ry                                                             
                                                                                                    
   TITEL  = PAW_PBE Al 04Jan2001                                                                    
   LULTRA =        F    use ultrasoft PP ?                                                          
   IUNSCR =        1    unscreen: 0-lin 1-nonlin 2-no                                               
   RPACOR =    1.500    partial core radius                                                         
   POMASS =   26.981; ZVAL   =    3.000    mass and valenz                                          
   RCORE  =    1.900    outmost cutoff radius                                                       
   RWIGS  =    2.650; RWIGS  =    1.402    wigner-seitz radius (au A)                               
   ENMAX  =  240.300; ENMIN  =  180.225 eV                                                          
   ICORE  =        2    local potential                                                             
   LCOR   =        T    correct aug charges                                                         
   LPAW   =        T    paw PP                                                                      
   EAUG   =  291.052                                                                                
   DEXC   =    0.000                                                                                
   RMAX   =    1.939    core radius for proj-oper                                                   
   RAUG   =    1.300    factor for augmentation sphere                                              
   RDEP   =    1.966    radius for radial grids                                                     
   RDEPT  =    1.856    core radius for aug-charge                                                  
                                                                                                    
   Atomic configuration                                                                             
    6 entries                                                                                       
     n  l   j            E        occ.                                                              
     1  0  0.50     -1511.1048   2.0000                                                             
     2  0  0.50      -108.1629   2.0000                                                             
     2  1  1.50       -69.6402   6.0000                                                             
     3  0  0.50        -7.7528   2.0000                                                             
     3  1  1.50        -2.7121   1.0000                                                             
     3  2  2.50        -2.7212   0.0000                                                             
   Description                                                                                      
     l       E           TYP  RCUT    TYP  RCUT                                                     
     0     -7.7528455     23  1.900                                                                 
     0     -3.3096929     23  1.900                                                                 
     1     -2.7120682     23  1.900                                                                 
     1     13.6058260     23  1.900                                                                 
     2     -2.7211652      7  1.900                                                                 
  local pseudopotential read in
  partial core-charges read in
  partial kinetic energy density read in
  atomic valenz-charges read in
  non local Contribution for L=           0  read in
    real space projection operators read in
  non local Contribution for L=           0  read in
    real space projection operators read in
  non local Contribution for L=           1  read in
    real space projection operators read in
  non local Contribution for L=           1  read in
    real space projection operators read in
    PAW grid and wavefunctions read in
 
   number of l-projection  operators is LMAX  =           4
   number of lm-projection operators is LMMAX =           8
 
  PAW_PBE Al 04Jan2001                  :
 energy of atom  1       EATOM=  -53.5387
 kinetic energy error for atom=    0.0002 (will be added to EATOM!!)
 
 
 POSCAR: Al4
  positions in direct lattice
  velocities in cartesian coordinates
 exchange correlation table for  LEXCH =        8
   RHO(1)=    0.500       N(1)  =     2000
   RHO(2)=  100.500       N(2)  =     4000
 


--------------------------------------------------------------------------------------------------------


 ion  position               nearest neighbor table
   1  0.000  0.000  0.000-   2 2.86   3 2.86   4 2.86   2 2.86   3 2.86   2 2.86   4 2.86   2 2.86
                             3 2.86   4 2.86   3 2.86   4 2.86
   2  0.000  0.500  0.500-   1 2.86   3 2.86   4 2.86   1 2.86   4 2.86   1 2.86   3 2.86   1 2.86
                             3 2.86   4 2.86   4 2.86   3 2.86
   3  0.500  0.000  0.500-   1 2.86   2 2.86   4 2.86   1 2.86   4 2.86   2 2.86   4 2.86   4 2.86
                             1 2.86   2 2.86   1 2.86   2 2.86
   4  0.500  0.500  0.000-   1 2.86   2 2.86   3 2.86   2 2.86   3 2.86   1 2.86   3 2.86   3 2.86
                             1 2.86   2 2.86   2 2.86   1 2.86
 
  LATTYP: Found a simple cubic cell.
 ALAT       =     4.0396918604
  
  Lattice vectors:
  
 A1 = (   4.0396918604,   0.0000000000,   0.0000000000)
 A2 = (   0.0000000000,   4.0396918604,   0.0000000000)
 A3 = (   0.0000000000,   0.0000000000,   4.0396918604)


Analysis of symmetry for initial positions (statically):
=====================================================================
 Subroutine PRICEL returns following result:
 
  LATTYP: Found a face centered cubic cell.
 ALAT       =     4.0396918604
  
  Lattice vectors:
  
 A1 = (   2.0198459302,   2.0198459302,   0.0000000000)
 A2 = (   2.0198459302,   0.0000000000,  -2.0198459302)
 A3 = (   0.0000000000,   2.0198459302,  -2.0198459302)
 
   4 primitive cells build up your supercell.
 

 Routine SETGRP: Setting up the symmetry group for a 
 simple cubic supercell.


 Subroutine GETGRP returns: Found 48 space group operations
 (whereof 48 operations were pure point group operations)
 out of a pool of 48 trial point group operations.


The static configuration has the point symmetry O_h .


Analysis of symmetry for dynamics (positions and initial velocities):
=====================================================================
 Subroutine PRICEL returns following result:
 
  LATTYP: Found a face centered cubic cell.
 ALAT       =     4.0396918604
  
  Lattice vectors:
  
 A1 = (   2.0198459302,   2.0198459302,   0.0000000000)
 A2 = (   2.0198459302,   0.0000000000,  -2.0198459302)
 A3 = (   0.0000000000,   2.0198459302,  -2.0198459302)
 
   4 primitive cells build up your supercell.
 

 Routine SETGRP: Setting up the symmetry group for a 
 simple cubic supercell.


 Subroutine GETGRP returns: Found 48 space group operations
 (whereof 48 operations were pure point group operations)
 out of a pool of 48 trial point group operations.


The dynamic configuration has the point symmetry O_h .


 Subroutine INISYM returns: Found 48 space group operations
 (whereof 48 operations are pure point group operations),
 and found     4 'primitive' translations


----------------------------------------------------------------------------------------

                                     Primitive cell                                     

  volume of cell :      16.4810

  direct lattice vectors                    reciprocal lattice vectors
     2.019845930  2.019845930  0.000000000     0.247543633  0.247543633  0.247543633
     2.019845930  0.000000000 -2.019845930     0.247543633 -0.247543633 -0.247543633
     0.000000000  2.019845930 -2.019845930    -0.247543633  0.247543633 -0.247543633

  length of vectors
     2.856493508  2.856493508  2.856493508     0.428758150  0.428758150  0.428758150

  position of ions in fractional coordinates (direct lattice)
     0.000000000  0.000000000  0.000000000

  ion indices of the primitive-cell ions
   primitive index   ion index
                 1           1

----------------------------------------------------------------------------------------

 
 
 KPOINTS: k points                                

Automatic generation of k-mesh.
Space group operators:
 irot       det(A)        alpha          n_x          n_y          n_z        tau_x        tau_y        tau_z
    1     1.000000     0.000000     1.000000     0.000000     0.000000     0.000000     0.000000     0.000000
    2    -1.000000     0.000000     1.000000     0.000000     0.000000     0.000000     0.000000     0.000000
    3     1.000000   120.000000    -0.577350    -0.577350    -0.577350     0.000000     0.000000     0.000000
    4    -1.000000   120.000000    -0.577350    -0.577350    -0.577350     0.000000     0.000000     0.000000
    5     1.000000   120.000000     0.577350     0.577350     0.577350     0.000000     0.000000     0.000000
    6    -1.000000   120.000000     0.577350     0.577350     0.577350     0.000000     0.000000     0.000000
    7     1.000000    90.000000     0.000000     0.000000    -1.000000     0.000000     0.000000     0.000000
    8    -1.000000    90.000000     0.000000     0.000000    -1.000000     0.000000     0.000000     0.000000
    9     1.000000   180.000000     0.000000     0.707107     0.707107     0.000000     0.000000     0.000000
   10    -1.000000   180.000000     0.000000     0.707107     0.707107     0.000000     0.000000     0.000000
   11     1.000000    90.000000     0.000000     1.000000     0.000000     0.000000     0.000000     0.000000
   12    -1.000000    90.000000     0.000000     1.000000     0.000000     0.000000     0.000000     0.000000
   13     1.000000   180.000000     0.000000     0.000000     1.000000     0.000000     0.000000     0.000000
   14    -1.000000   180.000000     0.000000     0.000000     1.000000     0.000000     0.000000     0.000000
   15     1.000000   120.000000    -0.577350     0.577350     0.577350     0.000000     0.000000     0.000000
   16    -1.000000   120.000000    -0.577350     0.577350     0.577350     0.000000     0.000000     0.000000
   17     1.000000   120.000000    -0.577350     0.577350    -0.577350     0.000000     0.000000     0.000000
   18    -1.000000   120.000000    -0.577350     0.577350    -0.577350     0.000000     0.000000     0.000000
   19     1.000000    90.000000     0.000000     0.000000     1.000000     0.000000     0.000000     0.000000
   20    -1.000000    90.000000     0.000000     0.000000     1.000000     0.000000     0.000000     0.000000
   21     1.000000    90.000000    -1.000000     0.000000     0.000000     0.000000     0.000000     0.000000
   22    -1.000000    90.000000    -1.000000     0.000000     0.000000     0.000000     0.000000     0.000000
   23     1.000000   180.000000     0.707107     0.000000     0.707107     0.000000     0.000000     0.000000
   24    -1.000000   180.000000     0.707107     0.000000     0.707107     0.000000     0.000000     0.000000
   25     1.000000   120.000000     0.577350    -0.577350     0.577350     0.000000     0.000000     0.000000
   26    -1.000000   120.000000     0.577350    -0.577350     0.577350     0.000000     0.000000     0.000000
   27     1.000000   120.000000    -0.577350    -0.577350     0.577350     0.000000     0.000000     0.000000
   28    -1.000000   120.000000    -0.577350    -0.577350     0.577350     0.000000     0.000000     0.000000
   29     1.000000   180.000000     1.000000     0.000000     0.000000     0.000000     0.000000     0.000000
   30    -1.000000   180.000000     1.000000     0.000000     0.000000     0.000000     0.000000     0.000000
   31     1.000000    90.000000     0.000000    -1.000000     0.000000     0.000000     0.000000     0.000000
   32    -1.000000    90.000000     0.000000    -1.000000     0.000000     0.000000     0.000000     0.000000
   33     1.000000   180.000000     0.707107     0.707107     0.000000     0.000000     0.000000     0.000000
   34    -1.000000   180.000000     0.707107     0.707107     0.000000     0.000000     0.000000     0.000000
   35     1.000000    90.000000     1.000000     0.000000     0.000000     0.000000     0.000000     0.000000
   36    -1.000000    90.000000     1.000000     0.000000     0.000000     0.000000     0.000000     0.000000
   37     1.000000   120.000000     0.577350    -0.577350    -0.577350     0.000000     0.000000     0.000000
   38    -1.000000   120.000000     0.577350    -0.577350    -0.577350     0.000000     0.000000     0.000000
   39     1.000000   180.000000     0.000000     1.000000     0.000000     0.000000     0.000000     0.000000
   40    -1.000000   180.000000     0.000000     1.000000     0.000000     0.000000     0.000000     0.000000
   41     1.000000   120.000000     0.577350     0.577350    -0.577350     0.000000     0.000000     0.000000
   42    -1.000000   120.000000     0.577350     0.577350    -0.577350     0.000000     0.000000     0.000000
   43     1.000000   180.000000     0.000000    -0.707107     0.707107     0.000000     0.000000     0.000000
   44    -1.000000   180.000000     0.000000    -0.707107     0.707107     0.000000     0.000000     0.000000
   45     1.000000   180.000000     0.707107    -0.707107     0.000000     0.000000     0.000000     0.000000
   46    -1.000000   180.000000     0.707107    -0.707107     0.000000     0.000000     0.000000     0.000000
   47     1.000000   180.000000     0.707107     0.000000    -0.707107     0.000000     0.000000     0.000000
   48    -1.000000   180.000000     0.707107     0.000000    -0.707107     0.000000     0.000000     0.000000
 
 Subroutine IBZKPT returns following result:
 ===========================================
 
 Found     84 irreducible k-points:
 
 Following reciprocal coordinates:
            Coordinates               Weight
  0.000000  0.000000  0.000000      1.000000
  0.076923  0.000000  0.000000      6.000000
  0.153846  0.000000  0.000000      6.000000
  0.230769  0.000000  0.000000      6.000000
  0.307692  0.000000  0.000000      6.000000
  0.384615  0.000000  0.000000      6.000000
  0.461538  0.000000  0.000000      6.000000
  0.076923  0.076923  0.000000     12.000000
  0.153846  0.076923  0.000000     24.000000
  0.230769  0.076923  0.000000     24.000000
  0.307692  0.076923  0.000000     24.000000
  0.384615  0.076923  0.000000     24.000000
  0.461538  0.076923  0.000000     24.000000
  0.153846  0.153846  0.000000     12.000000
  0.230769  0.153846  0.000000     24.000000
  0.307692  0.153846  0.000000     24.000000
  0.384615  0.153846  0.000000     24.000000
  0.461538  0.153846  0.000000     24.000000
  0.230769  0.230769  0.000000     12.000000
  0.307692  0.230769  0.000000     24.000000
  0.384615  0.230769  0.000000     24.000000
  0.461538  0.230769  0.000000     24.000000
  0.307692  0.307692  0.000000     12.000000
  0.384615  0.307692  0.000000     24.000000
  0.461538  0.307692  0.000000     24.000000
  0.384615  0.384615  0.000000     12.000000
  0.461538  0.384615  0.000000     24.000000
  0.461538  0.461538  0.000000     12.000000
  0.076923  0.076923  0.076923      8.000000
  0.153846  0.076923  0.076923     24.000000
  0.230769  0.076923  0.076923     24.000000
  0.307692  0.076923  0.076923     24.000000
  0.384615  0.076923  0.076923     24.000000
  0.461538  0.076923  0.076923     24.000000
  0.153846  0.153846  0.076923     24.000000
  0.230769  0.153846  0.076923     48.000000
  0.307692  0.153846  0.076923     48.000000
  0.384615  0.153846  0.076923     48.000000
  0.461538  0.153846  0.076923     48.000000
  0.230769  0.230769  0.076923     24.000000
  0.307692  0.230769  0.076923     48.000000
  0.384615  0.230769  0.076923     48.000000
  0.461538  0.230769  0.076923     48.000000
  0.307692  0.307692  0.076923     24.000000
  0.384615  0.307692  0.076923     48.000000
  0.461538  0.307692  0.076923     48.000000
  0.384615  0.384615  0.076923     24.000000
  0.461538  0.384615  0.076923     48.000000
  0.461538  0.461538  0.076923     24.000000
  0.153846  0.153846  0.153846      8.000000
  0.230769  0.153846  0.153846     24.000000
  0.307692  0.153846  0.153846     24.000000
  0.384615  0.153846  0.153846     24.000000
  0.461538  0.153846  0.153846     24.000000
  0.230769  0.230769  0.153846     24.000000
  0.307692  0.230769  0.153846     48.000000
  0.384615  0.230769  0.153846     48.000000
  0.461538  0.230769  0.153846     48.000000
  0.307692  0.307692  0.153846     24.000000
  0.384615  0.307692  0.153846     48.000000
  0.461538  0.307692  0.153846     48.000000
  0.384615  0.384615  0.153846     24.000000
  0.461538  0.384615  0.153846     48.000000
  0.461538  0.461538  0.153846     24.000000
  0.230769  0.230769  0.230769      8.000000
  0.307692  0.230769  0.230769     24.000000
  0.384615  0.230769  0.230769     24.000000
  0.461538  0.230769  0.230769     24.000000
  0.307692  0.307692  0.230769     24.000000
  0.384615  0.307692  0.230769     48.000000
  0.461538  0.307692  0.230769     48.000000
  0.384615  0.384615  0.230769     24.000000
  0.461538  0.384615  0.230769     48.000000
  0.461538  0.461538  0.230769     24.000000
  0.307692  0.307692  0.307692      8.000000
  0.384615  0.307692  0.307692     24.000000
  0.461538  0.307692  0.307692     24.000000
  0.384615  0.384615  0.307692     24.000000
  0.461538  0.384615  0.307692     48.000000
  0.461538  0.461538  0.307692     24.000000
  0.384615  0.384615  0.384615      8.000000
  0.461538  0.384615  0.384615     24.000000
  0.461538  0.461538  0.384615     24.000000
  0.461538  0.461538  0.461538      8.000000
 
 Following cartesian coordinates:
            Coordinates               Weight
  0.000000  0.000000  0.000000      1.000000
  0.019042  0.000000  0.000000      6.000000
  0.038084  0.000000  0.000000      6.000000
  0.057125  0.000000  0.000000      6.000000
  0.076167  0.000000  0.000000      6.000000
  0.095209  0.000000  0.000000      6.000000
  0.114251  0.000000  0.000000      6.000000
  0.019042  0.019042  0.000000     12.000000
  0.038084  0.019042  0.000000     24.000000
  0.057125  0.019042  0.000000     24.000000
  0.076167  0.019042  0.000000     24.000000
  0.095209  0.019042  0.000000     24.000000
  0.114251  0.019042  0.000000     24.000000
  0.038084  0.038084  0.000000     12.000000
  0.057125  0.038084  0.000000     24.000000
  0.076167  0.038084  0.000000     24.000000
  0.095209  0.038084  0.000000     24.000000
  0.114251  0.038084  0.000000     24.000000
  0.057125  0.057125  0.000000     12.000000
  0.076167  0.057125  0.000000     24.000000
  0.095209  0.057125  0.000000     24.000000
  0.114251  0.057125  0.000000     24.000000
  0.076167  0.076167  0.000000     12.000000
  0.095209  0.076167  0.000000     24.000000
  0.114251  0.076167  0.000000     24.000000
  0.095209  0.095209  0.000000     12.000000
  0.114251  0.095209  0.000000     24.000000
  0.114251  0.114251  0.000000     12.000000
  0.019042  0.019042  0.019042      8.000000
  0.038084  0.019042  0.019042     24.000000
  0.057125  0.019042  0.019042     24.000000
  0.076167  0.019042  0.019042     24.000000
  0.095209  0.019042  0.019042     24.000000
  0.114251  0.019042  0.019042     24.000000
  0.038084  0.038084  0.019042     24.000000
  0.057125  0.038084  0.019042     48.000000
  0.076167  0.038084  0.019042     48.000000
  0.095209  0.038084  0.019042     48.000000
  0.114251  0.038084  0.019042     48.000000
  0.057125  0.057125  0.019042     24.000000
  0.076167  0.057125  0.019042     48.000000
  0.095209  0.057125  0.019042     48.000000
  0.114251  0.057125  0.019042     48.000000
  0.076167  0.076167  0.019042     24.000000
  0.095209  0.076167  0.019042     48.000000
  0.114251  0.076167  0.019042     48.000000
  0.095209  0.095209  0.019042     24.000000
  0.114251  0.095209  0.019042     48.000000
  0.114251  0.114251  0.019042     24.000000
  0.038084  0.038084  0.038084      8.000000
  0.057125  0.038084  0.038084     24.000000
  0.076167  0.038084  0.038084     24.000000
  0.095209  0.038084  0.038084     24.000000
  0.114251  0.038084  0.038084     24.000000
  0.057125  0.057125  0.038084     24.000000
  0.076167  0.057125  0.038084     48.000000
  0.095209  0.057125  0.038084     48.000000
  0.114251  0.057125  0.038084     48.000000
  0.076167  0.076167  0.038084     24.000000
  0.095209  0.076167  0.038084     48.000000
  0.114251  0.076167  0.038084     48.000000
  0.095209  0.095209  0.038084     24.000000
  0.114251  0.095209  0.038084     48.000000
  0.114251  0.114251  0.038084     24.000000
  0.057125  0.057125  0.057125      8.000000
  0.076167  0.057125  0.057125     24.000000
  0.095209  0.057125  0.057125     24.000000
  0.114251  0.057125  0.057125     24.000000
  0.076167  0.076167  0.057125     24.000000
  0.095209  0.076167  0.057125     48.000000
  0.114251  0.076167  0.057125     48.000000
  0.095209  0.095209  0.057125     24.000000
  0.114251  0.095209  0.057125     48.000000
  0.114251  0.114251  0.057125     24.000000
  0.076167  0.076167  0.076167      8.000000
  0.095209  0.076167  0.076167     24.000000
  0.114251  0.076167  0.076167     24.000000
  0.095209  0.095209  0.076167     24.000000
  0.114251  0.095209  0.076167     48.000000
  0.114251  0.114251  0.076167     24.000000
  0.095209  0.095209  0.095209      8.000000
  0.114251  0.095209  0.095209     24.000000
  0.114251  0.114251  0.095209     24.000000
  0.114251  0.114251  0.114251      8.000000
 
 
 Subroutine IBZKPT_HF returns following result:
 ==============================================
 
 Found   2197 k-points in 1st BZ
 the following   2197 k-points will be used (e.g. in the exchange kernel)
 Following reciprocal coordinates:   # in IRBZ
  0.000000  0.000000  0.000000    0.00045517   1 t-inv F
  0.076923  0.000000  0.000000    0.00045517   2 t-inv F
  0.153846  0.000000  0.000000    0.00045517   3 t-inv F
  0.230769  0.000000  0.000000    0.00045517   4 t-inv F
  0.307692  0.000000  0.000000    0.00045517   5 t-inv F
  0.384615  0.000000  0.000000    0.00045517   6 t-inv F
  0.461538  0.000000  0.000000    0.00045517   7 t-inv F
  0.076923  0.076923  0.000000    0.00045517   8 t-inv F
  0.153846  0.076923  0.000000    0.00045517   9 t-inv F
  0.230769  0.076923  0.000000    0.00045517  10 t-inv F
  0.307692  0.076923  0.000000    0.00045517  11 t-inv F
  0.384615  0.076923  0.000000    0.00045517  12 t-inv F
  0.461538  0.076923  0.000000    0.00045517  13 t-inv F
  0.153846  0.153846  0.000000    0.00045517  14 t-inv F
  0.230769  0.153846  0.000000    0.00045517  15 t-inv F
  0.307692  0.153846  0.000000    0.00045517  16 t-inv F
  0.384615  0.153846  0.000000    0.00045517  17 t-inv F
  0.461538  0.153846  0.000000    0.00045517  18 t-inv F
  0.230769  0.230769  0.000000    0.00045517  19 t-inv F
  0.307692  0.230769  0.000000    0.00045517  20 t-inv F
  0.384615  0.230769  0.000000    0.00045517  21 t-inv F
  0.461538  0.230769  0.000000    0.00045517  22 t-inv F
  0.307692  0.307692  0.000000    0.00045517  23 t-inv F
  0.384615  0.307692  0.000000    0.00045517  24 t-inv F
  0.461538  0.307692  0.000000    0.00045517  25 t-inv F
  0.384615  0.384615  0.000000    0.00045517  26 t-inv F
  0.461538  0.384615  0.000000    0.00045517  27 t-inv F
  0.461538  0.461538  0.000000    0.00045517  28 t-inv F
  0.076923  0.076923  0.076923    0.00045517  29 t-inv F
  0.153846  0.076923  0.076923    0.00045517  30 t-inv F
  0.230769  0.076923  0.076923    0.00045517  31 t-inv F
  0.307692  0.076923  0.076923    0.00045517  32 t-inv F
  0.384615  0.076923  0.076923    0.00045517  33 t-inv F
  0.461538  0.076923  0.076923    0.00045517  34 t-inv F
  0.153846  0.153846  0.076923    0.00045517  35 t-inv F
  0.230769  0.153846  0.076923    0.00045517  36 t-inv F
  0.307692  0.153846  0.076923    0.00045517  37 t-inv F
  0.384615  0.153846  0.076923    0.00045517  38 t-inv F
  0.461538  0.153846  0.076923    0.00045517  39 t-inv F
  0.230769  0.230769  0.076923    0.00045517  40 t-inv F
  0.307692  0.230769  0.076923    0.00045517  41 t-inv F
  0.384615  0.230769  0.076923    0.00045517  42 t-inv F
  0.461538  0.230769  0.076923    0.00045517  43 t-inv F
  0.307692  0.307692  0.076923    0.00045517  44 t-inv F
  0.384615  0.307692  0.076923    0.00045517  45 t-inv F
  0.461538  0.307692  0.076923    0.00045517  46 t-inv F
  0.384615  0.384615  0.076923    0.00045517  47 t-inv F
  0.461538  0.384615  0.076923    0.00045517  48 t-inv F
  0.461538  0.461538  0.076923    0.00045517  49 t-inv F
  0.153846  0.153846  0.153846    0.00045517  50 t-inv F
  0.230769  0.153846  0.153846    0.00045517  51 t-inv F
  0.307692  0.153846  0.153846    0.00045517  52 t-inv F
  0.384615  0.153846  0.153846    0.00045517  53 t-inv F
  0.461538  0.153846  0.153846    0.00045517  54 t-inv F
  0.230769  0.230769  0.153846    0.00045517  55 t-inv F
  0.307692  0.230769  0.153846    0.00045517  56 t-inv F
  0.384615  0.230769  0.153846    0.00045517  57 t-inv F
  0.461538  0.230769  0.153846    0.00045517  58 t-inv F
  0.307692  0.307692  0.153846    0.00045517  59 t-inv F
  0.384615  0.307692  0.153846    0.00045517  60 t-inv F
  0.461538  0.307692  0.153846    0.00045517  61 t-inv F
  0.384615  0.384615  0.153846    0.00045517  62 t-inv F
  0.461538  0.384615  0.153846    0.00045517  63 t-inv F
  0.461538  0.461538  0.153846    0.00045517  64 t-inv F
  0.230769  0.230769  0.230769    0.00045517  65 t-inv F
  0.307692  0.230769  0.230769    0.00045517  66 t-inv F
  0.384615  0.230769  0.230769    0.00045517  67 t-inv F
  0.461538  0.230769  0.230769    0.00045517  68 t-inv F
  0.307692  0.307692  0.230769    0.00045517  69 t-inv F
  0.384615  0.307692  0.230769    0.00045517  70 t-inv F
  0.461538  0.307692  0.230769    0.00045517  71 t-inv F
  0.384615  0.384615  0.230769    0.00045517  72 t-inv F
  0.461538  0.384615  0.230769    0.00045517  73 t-inv F
  0.461538  0.461538  0.230769    0.00045517  74 t-inv F
  0.307692  0.307692  0.307692    0.00045517  75 t-inv F
  0.384615  0.307692  0.307692    0.00045517  76 t-inv F
  0.461538  0.307692  0.307692    0.00045517  77 t-inv F
  0.384615  0.384615  0.307692    0.00045517  78 t-inv F
  0.461538  0.384615  0.307692    0.00045517  79 t-inv F
  0.461538  0.461538  0.307692    0.00045517  80 t-inv F
  0.384615  0.384615  0.384615    0.00045517  81 t-inv F
  0.461538  0.384615  0.384615    0.00045517  82 t-inv F
  0.461538  0.461538  0.384615    0.00045517  83 t-inv F
  0.461538  0.461538  0.461538    0.00045517  84 t-inv F
 -0.076923  0.000000  0.000000    0.00045517   2 t-inv F
  0.000000  0.076923  0.000000    0.00045517   2 t-inv F
  0.000000 -0.076923  0.000000    0.00045517   2 t-inv F
  0.000000  0.000000  0.076923    0.00045517   2 t-inv F
  0.000000  0.000000 -0.076923    0.00045517   2 t-inv F
 -0.153846  0.000000  0.000000    0.00045517   3 t-inv F
  0.000000  0.153846  0.000000    0.00045517   3 t-inv F
  0.000000 -0.153846  0.000000    0.00045517   3 t-inv F
  0.000000  0.000000  0.153846    0.00045517   3 t-inv F
  0.000000  0.000000 -0.153846    0.00045517   3 t-inv F
 -0.230769  0.000000  0.000000    0.00045517   4 t-inv F
  0.000000  0.230769  0.000000    0.00045517   4 t-inv F
  0.000000 -0.230769  0.000000    0.00045517   4 t-inv F
  0.000000  0.000000  0.230769    0.00045517   4 t-inv F
  0.000000  0.000000 -0.230769    0.00045517   4 t-inv F
 -0.307692  0.000000  0.000000    0.00045517   5 t-inv F
  0.000000  0.307692  0.000000    0.00045517   5 t-inv F
  0.000000 -0.307692  0.000000    0.00045517   5 t-inv F
  0.000000  0.000000  0.307692    0.00045517   5 t-inv F
  0.000000  0.000000 -0.307692    0.00045517   5 t-inv F
 -0.384615  0.000000  0.000000    0.00045517   6 t-inv F
  0.000000  0.384615  0.000000    0.00045517   6 t-inv F
  0.000000 -0.384615  0.000000    0.00045517   6 t-inv F
  0.000000  0.000000  0.384615    0.00045517   6 t-inv F
  0.000000  0.000000 -0.384615    0.00045517   6 t-inv F
 -0.461538  0.000000  0.000000    0.00045517   7 t-inv F
  0.000000  0.461538  0.000000    0.00045517   7 t-inv F
  0.000000 -0.461538  0.000000    0.00045517   7 t-inv F
  0.000000  0.000000  0.461538    0.00045517   7 t-inv F
  0.000000  0.000000 -0.461538    0.00045517   7 t-inv F
 -0.076923 -0.076923  0.000000    0.00045517   8 t-inv F
  0.000000  0.076923  0.076923    0.00045517   8 t-inv F
  0.000000 -0.076923 -0.076923    0.00045517   8 t-inv F
  0.076923  0.000000  0.076923    0.00045517   8 t-inv F
 -0.076923  0.000000 -0.076923    0.00045517   8 t-inv F
 -0.076923  0.076923  0.000000    0.00045517   8 t-inv F
  0.076923 -0.076923  0.000000    0.00045517   8 t-inv F
 -0.076923  0.000000  0.076923    0.00045517   8 t-inv F
  0.076923  0.000000 -0.076923    0.00045517   8 t-inv F
  0.000000 -0.076923  0.076923    0.00045517   8 t-inv F
  0.000000  0.076923 -0.076923    0.00045517   8 t-inv F
 -0.153846 -0.076923  0.000000    0.00045517   9 t-inv F
  0.000000  0.153846  0.076923    0.00045517   9 t-inv F
  0.000000 -0.153846 -0.076923    0.00045517   9 t-inv F
  0.076923  0.000000  0.153846    0.00045517   9 t-inv F
 -0.076923  0.000000 -0.153846    0.00045517   9 t-inv F
 -0.076923  0.153846  0.000000    0.00045517   9 t-inv F
  0.076923 -0.153846  0.000000    0.00045517   9 t-inv F
 -0.153846  0.000000  0.076923    0.00045517   9 t-inv F
  0.153846  0.000000 -0.076923    0.00045517   9 t-inv F
  0.000000  0.076923  0.153846    0.00045517   9 t-inv F
  0.000000 -0.076923 -0.153846    0.00045517   9 t-inv F
  0.000000 -0.153846  0.076923    0.00045517   9 t-inv F
  0.000000  0.153846 -0.076923    0.00045517   9 t-inv F
 -0.076923  0.000000  0.153846    0.00045517   9 t-inv F
  0.076923  0.000000 -0.153846    0.00045517   9 t-inv F
  0.153846  0.000000  0.076923    0.00045517   9 t-inv F
 -0.153846  0.000000 -0.076923    0.00045517   9 t-inv F
  0.000000 -0.076923  0.153846    0.00045517   9 t-inv F
  0.000000  0.076923 -0.153846    0.00045517   9 t-inv F
  0.153846 -0.076923  0.000000    0.00045517   9 t-inv F
 -0.153846  0.076923  0.000000    0.00045517   9 t-inv F
  0.076923  0.153846  0.000000    0.00045517   9 t-inv F
 -0.076923 -0.153846  0.000000    0.00045517   9 t-inv F
 -0.230769 -0.076923  0.000000    0.00045517  10 t-inv F
  0.000000  0.230769  0.076923    0.00045517  10 t-inv F
  0.000000 -0.230769 -0.076923    0.00045517  10 t-inv F
  0.076923  0.000000  0.230769    0.00045517  10 t-inv F
 -0.076923  0.000000 -0.230769    0.00045517  10 t-inv F
 -0.076923  0.230769  0.000000    0.00045517  10 t-inv F
  0.076923 -0.230769  0.000000    0.00045517  10 t-inv F
 -0.230769  0.000000  0.076923    0.00045517  10 t-inv F
  0.230769  0.000000 -0.076923    0.00045517  10 t-inv F
  0.000000  0.076923  0.230769    0.00045517  10 t-inv F
  0.000000 -0.076923 -0.230769    0.00045517  10 t-inv F
  0.000000 -0.230769  0.076923    0.00045517  10 t-inv F
  0.000000  0.230769 -0.076923    0.00045517  10 t-inv F
 -0.076923  0.000000  0.230769    0.00045517  10 t-inv F
  0.076923  0.000000 -0.230769    0.00045517  10 t-inv F
  0.230769  0.000000  0.076923    0.00045517  10 t-inv F
 -0.230769  0.000000 -0.076923    0.00045517  10 t-inv F
  0.000000 -0.076923  0.230769    0.00045517  10 t-inv F
  0.000000  0.076923 -0.230769    0.00045517  10 t-inv F
  0.230769 -0.076923  0.000000    0.00045517  10 t-inv F
 -0.230769  0.076923  0.000000    0.00045517  10 t-inv F
  0.076923  0.230769  0.000000    0.00045517  10 t-inv F
 -0.076923 -0.230769  0.000000    0.00045517  10 t-inv F
 -0.307692 -0.076923  0.000000    0.00045517  11 t-inv F
  0.000000  0.307692  0.076923    0.00045517  11 t-inv F
  0.000000 -0.307692 -0.076923    0.00045517  11 t-inv F
  0.076923  0.000000  0.307692    0.00045517  11 t-inv F
 -0.076923  0.000000 -0.307692    0.00045517  11 t-inv F
 -0.076923  0.307692  0.000000    0.00045517  11 t-inv F
  0.076923 -0.307692  0.000000    0.00045517  11 t-inv F
 -0.307692  0.000000  0.076923    0.00045517  11 t-inv F
  0.307692  0.000000 -0.076923    0.00045517  11 t-inv F
  0.000000  0.076923  0.307692    0.00045517  11 t-inv F
  0.000000 -0.076923 -0.307692    0.00045517  11 t-inv F
  0.000000 -0.307692  0.076923    0.00045517  11 t-inv F
  0.000000  0.307692 -0.076923    0.00045517  11 t-inv F
 -0.076923  0.000000  0.307692    0.00045517  11 t-inv F
  0.076923  0.000000 -0.307692    0.00045517  11 t-inv F
  0.307692  0.000000  0.076923    0.00045517  11 t-inv F
 -0.307692  0.000000 -0.076923    0.00045517  11 t-inv F
  0.000000 -0.076923  0.307692    0.00045517  11 t-inv F
  0.000000  0.076923 -0.307692    0.00045517  11 t-inv F
  0.307692 -0.076923  0.000000    0.00045517  11 t-inv F
 -0.307692  0.076923  0.000000    0.00045517  11 t-inv F
  0.076923  0.307692  0.000000    0.00045517  11 t-inv F
 -0.076923 -0.307692  0.000000    0.00045517  11 t-inv F
 -0.384615 -0.076923  0.000000    0.00045517  12 t-inv F
  0.000000  0.384615  0.076923    0.00045517  12 t-inv F
  0.000000 -0.384615 -0.076923    0.00045517  12 t-inv F
  0.076923  0.000000  0.384615    0.00045517  12 t-inv F
 -0.076923  0.000000 -0.384615    0.00045517  12 t-inv F
 -0.076923  0.384615  0.000000    0.00045517  12 t-inv F
  0.076923 -0.384615  0.000000    0.00045517  12 t-inv F
 -0.384615  0.000000  0.076923    0.00045517  12 t-inv F
  0.384615  0.000000 -0.076923    0.00045517  12 t-inv F
  0.000000  0.076923  0.384615    0.00045517  12 t-inv F
  0.000000 -0.076923 -0.384615    0.00045517  12 t-inv F
  0.000000 -0.384615  0.076923    0.00045517  12 t-inv F
  0.000000  0.384615 -0.076923    0.00045517  12 t-inv F
 -0.076923  0.000000  0.384615    0.00045517  12 t-inv F
  0.076923  0.000000 -0.384615    0.00045517  12 t-inv F
  0.384615  0.000000  0.076923    0.00045517  12 t-inv F
 -0.384615  0.000000 -0.076923    0.00045517  12 t-inv F
  0.000000 -0.076923  0.384615    0.00045517  12 t-inv F
  0.000000  0.076923 -0.384615    0.00045517  12 t-inv F
  0.384615 -0.076923  0.000000    0.00045517  12 t-inv F
 -0.384615  0.076923  0.000000    0.00045517  12 t-inv F
  0.076923  0.384615  0.000000    0.00045517  12 t-inv F
 -0.076923 -0.384615  0.000000    0.00045517  12 t-inv F
 -0.461538 -0.076923  0.000000    0.00045517  13 t-inv F
  0.000000  0.461538  0.076923    0.00045517  13 t-inv F
  0.000000 -0.461538 -0.076923    0.00045517  13 t-inv F
  0.076923  0.000000  0.461538    0.00045517  13 t-inv F
 -0.076923  0.000000 -0.461538    0.00045517  13 t-inv F
 -0.076923  0.461538  0.000000    0.00045517  13 t-inv F
  0.076923 -0.461538  0.000000    0.00045517  13 t-inv F
 -0.461538  0.000000  0.076923    0.00045517  13 t-inv F
  0.461538  0.000000 -0.076923    0.00045517  13 t-inv F
  0.000000  0.076923  0.461538    0.00045517  13 t-inv F
  0.000000 -0.076923 -0.461538    0.00045517  13 t-inv F
  0.000000 -0.461538  0.076923    0.00045517  13 t-inv F
  0.000000  0.461538 -0.076923    0.00045517  13 t-inv F
 -0.076923  0.000000  0.461538    0.00045517  13 t-inv F
  0.076923  0.000000 -0.461538    0.00045517  13 t-inv F
  0.461538  0.000000  0.076923    0.00045517  13 t-inv F
 -0.461538  0.000000 -0.076923    0.00045517  13 t-inv F
  0.000000 -0.076923  0.461538    0.00045517  13 t-inv F
  0.000000  0.076923 -0.461538    0.00045517  13 t-inv F
  0.461538 -0.076923  0.000000    0.00045517  13 t-inv F
 -0.461538  0.076923  0.000000    0.00045517  13 t-inv F
  0.076923  0.461538  0.000000    0.00045517  13 t-inv F
 -0.076923 -0.461538  0.000000    0.00045517  13 t-inv F
 -0.153846 -0.153846  0.000000    0.00045517  14 t-inv F
  0.000000  0.153846  0.153846    0.00045517  14 t-inv F
  0.000000 -0.153846 -0.153846    0.00045517  14 t-inv F
  0.153846  0.000000  0.153846    0.00045517  14 t-inv F
 -0.153846  0.000000 -0.153846    0.00045517  14 t-inv F
 -0.153846  0.153846  0.000000    0.00045517  14 t-inv F
  0.153846 -0.153846  0.000000    0.00045517  14 t-inv F
 -0.153846  0.000000  0.153846    0.00045517  14 t-inv F
  0.153846  0.000000 -0.153846    0.00045517  14 t-inv F
  0.000000 -0.153846  0.153846    0.00045517  14 t-inv F
  0.000000  0.153846 -0.153846    0.00045517  14 t-inv F
 -0.230769 -0.153846  0.000000    0.00045517  15 t-inv F
  0.000000  0.230769  0.153846    0.00045517  15 t-inv F
  0.000000 -0.230769 -0.153846    0.00045517  15 t-inv F
  0.153846  0.000000  0.230769    0.00045517  15 t-inv F
 -0.153846  0.000000 -0.230769    0.00045517  15 t-inv F
 -0.153846  0.230769  0.000000    0.00045517  15 t-inv F
  0.153846 -0.230769  0.000000    0.00045517  15 t-inv F
 -0.230769  0.000000  0.153846    0.00045517  15 t-inv F
  0.230769  0.000000 -0.153846    0.00045517  15 t-inv F
  0.000000  0.153846  0.230769    0.00045517  15 t-inv F
  0.000000 -0.153846 -0.230769    0.00045517  15 t-inv F
  0.000000 -0.230769  0.153846    0.00045517  15 t-inv F
  0.000000  0.230769 -0.153846    0.00045517  15 t-inv F
 -0.153846  0.000000  0.230769    0.00045517  15 t-inv F
  0.153846  0.000000 -0.230769    0.00045517  15 t-inv F
  0.230769  0.000000  0.153846    0.00045517  15 t-inv F
 -0.230769  0.000000 -0.153846    0.00045517  15 t-inv F
  0.000000 -0.153846  0.230769    0.00045517  15 t-inv F
  0.000000  0.153846 -0.230769    0.00045517  15 t-inv F
  0.230769 -0.153846  0.000000    0.00045517  15 t-inv F
 -0.230769  0.153846  0.000000    0.00045517  15 t-inv F
  0.153846  0.230769  0.000000    0.00045517  15 t-inv F
 -0.153846 -0.230769  0.000000    0.00045517  15 t-inv F
 -0.307692 -0.153846  0.000000    0.00045517  16 t-inv F
  0.000000  0.307692  0.153846    0.00045517  16 t-inv F
  0.000000 -0.307692 -0.153846    0.00045517  16 t-inv F
  0.153846  0.000000  0.307692    0.00045517  16 t-inv F
 -0.153846  0.000000 -0.307692    0.00045517  16 t-inv F
 -0.153846  0.307692  0.000000    0.00045517  16 t-inv F
  0.153846 -0.307692  0.000000    0.00045517  16 t-inv F
 -0.307692  0.000000  0.153846    0.00045517  16 t-inv F
  0.307692  0.000000 -0.153846    0.00045517  16 t-inv F
  0.000000  0.153846  0.307692    0.00045517  16 t-inv F
  0.000000 -0.153846 -0.307692    0.00045517  16 t-inv F
  0.000000 -0.307692  0.153846    0.00045517  16 t-inv F
  0.000000  0.307692 -0.153846    0.00045517  16 t-inv F
 -0.153846  0.000000  0.307692    0.00045517  16 t-inv F
  0.153846  0.000000 -0.307692    0.00045517  16 t-inv F
  0.307692  0.000000  0.153846    0.00045517  16 t-inv F
 -0.307692  0.000000 -0.153846    0.00045517  16 t-inv F
  0.000000 -0.153846  0.307692    0.00045517  16 t-inv F
  0.000000  0.153846 -0.307692    0.00045517  16 t-inv F
  0.307692 -0.153846  0.000000    0.00045517  16 t-inv F
 -0.307692  0.153846  0.000000    0.00045517  16 t-inv F
  0.153846  0.307692  0.000000    0.00045517  16 t-inv F
 -0.153846 -0.307692  0.000000    0.00045517  16 t-inv F
 -0.384615 -0.153846  0.000000    0.00045517  17 t-inv F
  0.000000  0.384615  0.153846    0.00045517  17 t-inv F
  0.000000 -0.384615 -0.153846    0.00045517  17 t-inv F
  0.153846  0.000000  0.384615    0.00045517  17 t-inv F
 -0.153846  0.000000 -0.384615    0.00045517  17 t-inv F
 -0.153846  0.384615  0.000000    0.00045517  17 t-inv F
  0.153846 -0.384615  0.000000    0.00045517  17 t-inv F
 -0.384615  0.000000  0.153846    0.00045517  17 t-inv F
  0.384615  0.000000 -0.153846    0.00045517  17 t-inv F
  0.000000  0.153846  0.384615    0.00045517  17 t-inv F
  0.000000 -0.153846 -0.384615    0.00045517  17 t-inv F
  0.000000 -0.384615  0.153846    0.00045517  17 t-inv F
  0.000000  0.384615 -0.153846    0.00045517  17 t-inv F
 -0.153846  0.000000  0.384615    0.00045517  17 t-inv F
  0.153846  0.000000 -0.384615    0.00045517  17 t-inv F
  0.384615  0.000000  0.153846    0.00045517  17 t-inv F
 -0.384615  0.000000 -0.153846    0.00045517  17 t-inv F
  0.000000 -0.153846  0.384615    0.00045517  17 t-inv F
  0.000000  0.153846 -0.384615    0.00045517  17 t-inv F
  0.384615 -0.153846  0.000000    0.00045517  17 t-inv F
 -0.384615  0.153846  0.000000    0.00045517  17 t-inv F
  0.153846  0.384615  0.000000    0.00045517  17 t-inv F
 -0.153846 -0.384615  0.000000    0.00045517  17 t-inv F
 -0.461538 -0.153846  0.000000    0.00045517  18 t-inv F
  0.000000  0.461538  0.153846    0.00045517  18 t-inv F
  0.000000 -0.461538 -0.153846    0.00045517  18 t-inv F
  0.153846  0.000000  0.461538    0.00045517  18 t-inv F
 -0.153846  0.000000 -0.461538    0.00045517  18 t-inv F
 -0.153846  0.461538  0.000000    0.00045517  18 t-inv F
  0.153846 -0.461538  0.000000    0.00045517  18 t-inv F
 -0.461538  0.000000  0.153846    0.00045517  18 t-inv F
  0.461538  0.000000 -0.153846    0.00045517  18 t-inv F
  0.000000  0.153846  0.461538    0.00045517  18 t-inv F
  0.000000 -0.153846 -0.461538    0.00045517  18 t-inv F
  0.000000 -0.461538  0.153846    0.00045517  18 t-inv F
  0.000000  0.461538 -0.153846    0.00045517  18 t-inv F
 -0.153846  0.000000  0.461538    0.00045517  18 t-inv F
  0.153846  0.000000 -0.461538    0.00045517  18 t-inv F
  0.461538  0.000000  0.153846    0.00045517  18 t-inv F
 -0.461538  0.000000 -0.153846    0.00045517  18 t-inv F
  0.000000 -0.153846  0.461538    0.00045517  18 t-inv F
  0.000000  0.153846 -0.461538    0.00045517  18 t-inv F
  0.461538 -0.153846  0.000000    0.00045517  18 t-inv F
 -0.461538  0.153846  0.000000    0.00045517  18 t-inv F
  0.153846  0.461538  0.000000    0.00045517  18 t-inv F
 -0.153846 -0.461538  0.000000    0.00045517  18 t-inv F
 -0.230769 -0.230769  0.000000    0.00045517  19 t-inv F
  0.000000  0.230769  0.230769    0.00045517  19 t-inv F
  0.000000 -0.230769 -0.230769    0.00045517  19 t-inv F
  0.230769  0.000000  0.230769    0.00045517  19 t-inv F
 -0.230769  0.000000 -0.230769    0.00045517  19 t-inv F
 -0.230769  0.230769  0.000000    0.00045517  19 t-inv F
  0.230769 -0.230769  0.000000    0.00045517  19 t-inv F
 -0.230769  0.000000  0.230769    0.00045517  19 t-inv F
  0.230769  0.000000 -0.230769    0.00045517  19 t-inv F
  0.000000 -0.230769  0.230769    0.00045517  19 t-inv F
  0.000000  0.230769 -0.230769    0.00045517  19 t-inv F
 -0.307692 -0.230769  0.000000    0.00045517  20 t-inv F
  0.000000  0.307692  0.230769    0.00045517  20 t-inv F
  0.000000 -0.307692 -0.230769    0.00045517  20 t-inv F
  0.230769  0.000000  0.307692    0.00045517  20 t-inv F
 -0.230769  0.000000 -0.307692    0.00045517  20 t-inv F
 -0.230769  0.307692  0.000000    0.00045517  20 t-inv F
  0.230769 -0.307692  0.000000    0.00045517  20 t-inv F
 -0.307692  0.000000  0.230769    0.00045517  20 t-inv F
  0.307692  0.000000 -0.230769    0.00045517  20 t-inv F
  0.000000  0.230769  0.307692    0.00045517  20 t-inv F
  0.000000 -0.230769 -0.307692    0.00045517  20 t-inv F
  0.000000 -0.307692  0.230769    0.00045517  20 t-inv F
  0.000000  0.307692 -0.230769    0.00045517  20 t-inv F
 -0.230769  0.000000  0.307692    0.00045517  20 t-inv F
  0.230769  0.000000 -0.307692    0.00045517  20 t-inv F
  0.307692  0.000000  0.230769    0.00045517  20 t-inv F
 -0.307692  0.000000 -0.230769    0.00045517  20 t-inv F
  0.000000 -0.230769  0.307692    0.00045517  20 t-inv F
  0.000000  0.230769 -0.307692    0.00045517  20 t-inv F
  0.307692 -0.230769  0.000000    0.00045517  20 t-inv F
 -0.307692  0.230769  0.000000    0.00045517  20 t-inv F
  0.230769  0.307692  0.000000    0.00045517  20 t-inv F
 -0.230769 -0.307692  0.000000    0.00045517  20 t-inv F
 -0.384615 -0.230769  0.000000    0.00045517  21 t-inv F
  0.000000  0.384615  0.230769    0.00045517  21 t-inv F
  0.000000 -0.384615 -0.230769    0.00045517  21 t-inv F
  0.230769  0.000000  0.384615    0.00045517  21 t-inv F
 -0.230769  0.000000 -0.384615    0.00045517  21 t-inv F
 -0.230769  0.384615  0.000000    0.00045517  21 t-inv F
  0.230769 -0.384615  0.000000    0.00045517  21 t-inv F
 -0.384615  0.000000  0.230769    0.00045517  21 t-inv F
  0.384615  0.000000 -0.230769    0.00045517  21 t-inv F
  0.000000  0.230769  0.384615    0.00045517  21 t-inv F
  0.000000 -0.230769 -0.384615    0.00045517  21 t-inv F
  0.000000 -0.384615  0.230769    0.00045517  21 t-inv F
  0.000000  0.384615 -0.230769    0.00045517  21 t-inv F
 -0.230769  0.000000  0.384615    0.00045517  21 t-inv F
  0.230769  0.000000 -0.384615    0.00045517  21 t-inv F
  0.384615  0.000000  0.230769    0.00045517  21 t-inv F
 -0.384615  0.000000 -0.230769    0.00045517  21 t-inv F
  0.000000 -0.230769  0.384615    0.00045517  21 t-inv F
  0.000000  0.230769 -0.384615    0.00045517  21 t-inv F
  0.384615 -0.230769  0.000000    0.00045517  21 t-inv F
 -0.384615  0.230769  0.000000    0.00045517  21 t-inv F
  0.230769  0.384615  0.000000    0.00045517  21 t-inv F
 -0.230769 -0.384615  0.000000    0.00045517  21 t-inv F
 -0.461538 -0.230769  0.000000    0.00045517  22 t-inv F
  0.000000  0.461538  0.230769    0.00045517  22 t-inv F
  0.000000 -0.461538 -0.230769    0.00045517  22 t-inv F
  0.230769  0.000000  0.461538    0.00045517  22 t-inv F
 -0.230769  0.000000 -0.461538    0.00045517  22 t-inv F
 -0.230769  0.461538  0.000000    0.00045517  22 t-inv F
  0.230769 -0.461538  0.000000    0.00045517  22 t-inv F
 -0.461538  0.000000  0.230769    0.00045517  22 t-inv F
  0.461538  0.000000 -0.230769    0.00045517  22 t-inv F
  0.000000  0.230769  0.461538    0.00045517  22 t-inv F
  0.000000 -0.230769 -0.461538    0.00045517  22 t-inv F
  0.000000 -0.461538  0.230769    0.00045517  22 t-inv F
  0.000000  0.461538 -0.230769    0.00045517  22 t-inv F
 -0.230769  0.000000  0.461538    0.00045517  22 t-inv F
  0.230769  0.000000 -0.461538    0.00045517  22 t-inv F
  0.461538  0.000000  0.230769    0.00045517  22 t-inv F
 -0.461538  0.000000 -0.230769    0.00045517  22 t-inv F
  0.000000 -0.230769  0.461538    0.00045517  22 t-inv F
  0.000000  0.230769 -0.461538    0.00045517  22 t-inv F
  0.461538 -0.230769  0.000000    0.00045517  22 t-inv F
 -0.461538  0.230769  0.000000    0.00045517  22 t-inv F
  0.230769  0.461538  0.000000    0.00045517  22 t-inv F
 -0.230769 -0.461538  0.000000    0.00045517  22 t-inv F
 -0.307692 -0.307692  0.000000    0.00045517  23 t-inv F
  0.000000  0.307692  0.307692    0.00045517  23 t-inv F
  0.000000 -0.307692 -0.307692    0.00045517  23 t-inv F
  0.307692  0.000000  0.307692    0.00045517  23 t-inv F
 -0.307692  0.000000 -0.307692    0.00045517  23 t-inv F
 -0.307692  0.307692  0.000000    0.00045517  23 t-inv F
  0.307692 -0.307692  0.000000    0.00045517  23 t-inv F
 -0.307692  0.000000  0.307692    0.00045517  23 t-inv F
  0.307692  0.000000 -0.307692    0.00045517  23 t-inv F
  0.000000 -0.307692  0.307692    0.00045517  23 t-inv F
  0.000000  0.307692 -0.307692    0.00045517  23 t-inv F
 -0.384615 -0.307692  0.000000    0.00045517  24 t-inv F
  0.000000  0.384615  0.307692    0.00045517  24 t-inv F
  0.000000 -0.384615 -0.307692    0.00045517  24 t-inv F
  0.307692  0.000000  0.384615    0.00045517  24 t-inv F
 -0.307692  0.000000 -0.384615    0.00045517  24 t-inv F
 -0.307692  0.384615  0.000000    0.00045517  24 t-inv F
  0.307692 -0.384615  0.000000    0.00045517  24 t-inv F
 -0.384615  0.000000  0.307692    0.00045517  24 t-inv F
  0.384615  0.000000 -0.307692    0.00045517  24 t-inv F
  0.000000  0.307692  0.384615    0.00045517  24 t-inv F
  0.000000 -0.307692 -0.384615    0.00045517  24 t-inv F
  0.000000 -0.384615  0.307692    0.00045517  24 t-inv F
  0.000000  0.384615 -0.307692    0.00045517  24 t-inv F
 -0.307692  0.000000  0.384615    0.00045517  24 t-inv F
  0.307692  0.000000 -0.384615    0.00045517  24 t-inv F
  0.384615  0.000000  0.307692    0.00045517  24 t-inv F
 -0.384615  0.000000 -0.307692    0.00045517  24 t-inv F
  0.000000 -0.307692  0.384615    0.00045517  24 t-inv F
  0.000000  0.307692 -0.384615    0.00045517  24 t-inv F
  0.384615 -0.307692  0.000000    0.00045517  24 t-inv F
 -0.384615  0.307692  0.000000    0.00045517  24 t-inv F
  0.307692  0.384615  0.000000    0.00045517  24 t-inv F
 -0.307692 -0.384615  0.000000    0.00045517  24 t-inv F
 -0.461538 -0.307692  0.000000    0.00045517  25 t-inv F
  0.000000  0.461538  0.307692    0.00045517  25 t-inv F
  0.000000 -0.461538 -0.307692    0.00045517  25 t-inv F
  0.307692  0.000000  0.461538    0.00045517  25 t-inv F
 -0.307692  0.000000 -0.461538    0.00045517  25 t-inv F
 -0.307692  0.461538  0.000000    0.00045517  25 t-inv F
  0.307692 -0.461538  0.000000    0.00045517  25 t-inv F
 -0.461538  0.000000  0.307692    0.00045517  25 t-inv F
  0.461538  0.000000 -0.307692    0.00045517  25 t-inv F
  0.000000  0.307692  0.461538    0.00045517  25 t-inv F
  0.000000 -0.307692 -0.461538    0.00045517  25 t-inv F
  0.000000 -0.461538  0.307692    0.00045517  25 t-inv F
  0.000000  0.461538 -0.307692    0.00045517  25 t-inv F
 -0.307692  0.000000  0.461538    0.00045517  25 t-inv F
  0.307692  0.000000 -0.461538    0.00045517  25 t-inv F
  0.461538  0.000000  0.307692    0.00045517  25 t-inv F
 -0.461538  0.000000 -0.307692    0.00045517  25 t-inv F
  0.000000 -0.307692  0.461538    0.00045517  25 t-inv F
  0.000000  0.307692 -0.461538    0.00045517  25 t-inv F
  0.461538 -0.307692  0.000000    0.00045517  25 t-inv F
 -0.461538  0.307692  0.000000    0.00045517  25 t-inv F
  0.307692  0.461538  0.000000    0.00045517  25 t-inv F
 -0.307692 -0.461538  0.000000    0.00045517  25 t-inv F
 -0.384615 -0.384615  0.000000    0.00045517  26 t-inv F
  0.000000  0.384615  0.384615    0.00045517  26 t-inv F
  0.000000 -0.384615 -0.384615    0.00045517  26 t-inv F
  0.384615  0.000000  0.384615    0.00045517  26 t-inv F
 -0.384615  0.000000 -0.384615    0.00045517  26 t-inv F
 -0.384615  0.384615  0.000000    0.00045517  26 t-inv F
  0.384615 -0.384615  0.000000    0.00045517  26 t-inv F
 -0.384615  0.000000  0.384615    0.00045517  26 t-inv F
  0.384615  0.000000 -0.384615    0.00045517  26 t-inv F
  0.000000 -0.384615  0.384615    0.00045517  26 t-inv F
  0.000000  0.384615 -0.384615    0.00045517  26 t-inv F
 -0.461538 -0.384615  0.000000    0.00045517  27 t-inv F
  0.000000  0.461538  0.384615    0.00045517  27 t-inv F
  0.000000 -0.461538 -0.384615    0.00045517  27 t-inv F
  0.384615  0.000000  0.461538    0.00045517  27 t-inv F
 -0.384615  0.000000 -0.461538    0.00045517  27 t-inv F
 -0.384615  0.461538  0.000000    0.00045517  27 t-inv F
  0.384615 -0.461538  0.000000    0.00045517  27 t-inv F
 -0.461538  0.000000  0.384615    0.00045517  27 t-inv F
  0.461538  0.000000 -0.384615    0.00045517  27 t-inv F
  0.000000  0.384615  0.461538    0.00045517  27 t-inv F
  0.000000 -0.384615 -0.461538    0.00045517  27 t-inv F
  0.000000 -0.461538  0.384615    0.00045517  27 t-inv F
  0.000000  0.461538 -0.384615    0.00045517  27 t-inv F
 -0.384615  0.000000  0.461538    0.00045517  27 t-inv F
  0.384615  0.000000 -0.461538    0.00045517  27 t-inv F
  0.461538  0.000000  0.384615    0.00045517  27 t-inv F
 -0.461538  0.000000 -0.384615    0.00045517  27 t-inv F
  0.000000 -0.384615  0.461538    0.00045517  27 t-inv F
  0.000000  0.384615 -0.461538    0.00045517  27 t-inv F
  0.461538 -0.384615  0.000000    0.00045517  27 t-inv F
 -0.461538  0.384615  0.000000    0.00045517  27 t-inv F
  0.384615  0.461538  0.000000    0.00045517  27 t-inv F
 -0.384615 -0.461538  0.000000    0.00045517  27 t-inv F
 -0.461538 -0.461538  0.000000    0.00045517  28 t-inv F
  0.000000  0.461538  0.461538    0.00045517  28 t-inv F
  0.000000 -0.461538 -0.461538    0.00045517  28 t-inv F
  0.461538  0.000000  0.461538    0.00045517  28 t-inv F
 -0.461538  0.000000 -0.461538    0.00045517  28 t-inv F
 -0.461538  0.461538  0.000000    0.00045517  28 t-inv F
  0.461538 -0.461538  0.000000    0.00045517  28 t-inv F
 -0.461538  0.000000  0.461538    0.00045517  28 t-inv F
  0.461538  0.000000 -0.461538    0.00045517  28 t-inv F
  0.000000 -0.461538  0.461538    0.00045517  28 t-inv F
  0.000000  0.461538 -0.461538    0.00045517  28 t-inv F
 -0.076923 -0.076923 -0.076923    0.00045517  29 t-inv F
 -0.076923  0.076923  0.076923    0.00045517  29 t-inv F
  0.076923 -0.076923 -0.076923    0.00045517  29 t-inv F
 -0.076923 -0.076923  0.076923    0.00045517  29 t-inv F
  0.076923  0.076923 -0.076923    0.00045517  29 t-inv F
  0.076923 -0.076923  0.076923    0.00045517  29 t-inv F
 -0.076923  0.076923 -0.076923    0.00045517  29 t-inv F
 -0.153846 -0.076923 -0.076923    0.00045517  30 t-inv F
  0.076923  0.153846  0.076923    0.00045517  30 t-inv F
 -0.076923 -0.153846 -0.076923    0.00045517  30 t-inv F
  0.076923  0.076923  0.153846    0.00045517  30 t-inv F
 -0.076923 -0.076923 -0.153846    0.00045517  30 t-inv F
 -0.076923  0.153846  0.076923    0.00045517  30 t-inv F
  0.076923 -0.153846 -0.076923    0.00045517  30 t-inv F
 -0.153846  0.076923  0.076923    0.00045517  30 t-inv F
  0.153846 -0.076923 -0.076923    0.00045517  30 t-inv F
 -0.076923  0.076923  0.153846    0.00045517  30 t-inv F
  0.076923 -0.076923 -0.153846    0.00045517  30 t-inv F
 -0.153846 -0.076923  0.076923    0.00045517  30 t-inv F
  0.153846  0.076923 -0.076923    0.00045517  30 t-inv F
 -0.076923 -0.153846  0.076923    0.00045517  30 t-inv F
  0.076923  0.153846 -0.076923    0.00045517  30 t-inv F
 -0.076923 -0.076923  0.153846    0.00045517  30 t-inv F
  0.076923  0.076923 -0.153846    0.00045517  30 t-inv F
  0.076923 -0.153846  0.076923    0.00045517  30 t-inv F
 -0.076923  0.153846 -0.076923    0.00045517  30 t-inv F
  0.153846 -0.076923  0.076923    0.00045517  30 t-inv F
 -0.153846  0.076923 -0.076923    0.00045517  30 t-inv F
  0.076923 -0.076923  0.153846    0.00045517  30 t-inv F
 -0.076923  0.076923 -0.153846    0.00045517  30 t-inv F
 -0.230769 -0.076923 -0.076923    0.00045517  31 t-inv F
  0.076923  0.230769  0.076923    0.00045517  31 t-inv F
 -0.076923 -0.230769 -0.076923    0.00045517  31 t-inv F
  0.076923  0.076923  0.230769    0.00045517  31 t-inv F
 -0.076923 -0.076923 -0.230769    0.00045517  31 t-inv F
 -0.076923  0.230769  0.076923    0.00045517  31 t-inv F
  0.076923 -0.230769 -0.076923    0.00045517  31 t-inv F
 -0.230769  0.076923  0.076923    0.00045517  31 t-inv F
  0.230769 -0.076923 -0.076923    0.00045517  31 t-inv F
 -0.076923  0.076923  0.230769    0.00045517  31 t-inv F
  0.076923 -0.076923 -0.230769    0.00045517  31 t-inv F
 -0.230769 -0.076923  0.076923    0.00045517  31 t-inv F
  0.230769  0.076923 -0.076923    0.00045517  31 t-inv F
 -0.076923 -0.230769  0.076923    0.00045517  31 t-inv F
  0.076923  0.230769 -0.076923    0.00045517  31 t-inv F
 -0.076923 -0.076923  0.230769    0.00045517  31 t-inv F
  0.076923  0.076923 -0.230769    0.00045517  31 t-inv F
  0.076923 -0.230769  0.076923    0.00045517  31 t-inv F
 -0.076923  0.230769 -0.076923    0.00045517  31 t-inv F
  0.230769 -0.076923  0.076923    0.00045517  31 t-inv F
 -0.230769  0.076923 -0.076923    0.00045517  31 t-inv F
  0.076923 -0.076923  0.230769    0.00045517  31 t-inv F
 -0.076923  0.076923 -0.230769    0.00045517  31 t-inv F
 -0.307692 -0.076923 -0.076923    0.00045517  32 t-inv F
  0.076923  0.307692  0.076923    0.00045517  32 t-inv F
 -0.076923 -0.307692 -0.076923    0.00045517  32 t-inv F
  0.076923  0.076923  0.307692    0.00045517  32 t-inv F
 -0.076923 -0.076923 -0.307692    0.00045517  32 t-inv F
 -0.076923  0.307692  0.076923    0.00045517  32 t-inv F
  0.076923 -0.307692 -0.076923    0.00045517  32 t-inv F
 -0.307692  0.076923  0.076923    0.00045517  32 t-inv F
  0.307692 -0.076923 -0.076923    0.00045517  32 t-inv F
 -0.076923  0.076923  0.307692    0.00045517  32 t-inv F
  0.076923 -0.076923 -0.307692    0.00045517  32 t-inv F
 -0.307692 -0.076923  0.076923    0.00045517  32 t-inv F
  0.307692  0.076923 -0.076923    0.00045517  32 t-inv F
 -0.076923 -0.307692  0.076923    0.00045517  32 t-inv F
  0.076923  0.307692 -0.076923    0.00045517  32 t-inv F
 -0.076923 -0.076923  0.307692    0.00045517  32 t-inv F
  0.076923  0.076923 -0.307692    0.00045517  32 t-inv F
  0.076923 -0.307692  0.076923    0.00045517  32 t-inv F
 -0.076923  0.307692 -0.076923    0.00045517  32 t-inv F
  0.307692 -0.076923  0.076923    0.00045517  32 t-inv F
 -0.307692  0.076923 -0.076923    0.00045517  32 t-inv F
  0.076923 -0.076923  0.307692    0.00045517  32 t-inv F
 -0.076923  0.076923 -0.307692    0.00045517  32 t-inv F
 -0.384615 -0.076923 -0.076923    0.00045517  33 t-inv F
  0.076923  0.384615  0.076923    0.00045517  33 t-inv F
 -0.076923 -0.384615 -0.076923    0.00045517  33 t-inv F
  0.076923  0.076923  0.384615    0.00045517  33 t-inv F
 -0.076923 -0.076923 -0.384615    0.00045517  33 t-inv F
 -0.076923  0.384615  0.076923    0.00045517  33 t-inv F
  0.076923 -0.384615 -0.076923    0.00045517  33 t-inv F
 -0.384615  0.076923  0.076923    0.00045517  33 t-inv F
  0.384615 -0.076923 -0.076923    0.00045517  33 t-inv F
 -0.076923  0.076923  0.384615    0.00045517  33 t-inv F
  0.076923 -0.076923 -0.384615    0.00045517  33 t-inv F
 -0.384615 -0.076923  0.076923    0.00045517  33 t-inv F
  0.384615  0.076923 -0.076923    0.00045517  33 t-inv F
 -0.076923 -0.384615  0.076923    0.00045517  33 t-inv F
  0.076923  0.384615 -0.076923    0.00045517  33 t-inv F
 -0.076923 -0.076923  0.384615    0.00045517  33 t-inv F
  0.076923  0.076923 -0.384615    0.00045517  33 t-inv F
  0.076923 -0.384615  0.076923    0.00045517  33 t-inv F
 -0.076923  0.384615 -0.076923    0.00045517  33 t-inv F
  0.384615 -0.076923  0.076923    0.00045517  33 t-inv F
 -0.384615  0.076923 -0.076923    0.00045517  33 t-inv F
  0.076923 -0.076923  0.384615    0.00045517  33 t-inv F
 -0.076923  0.076923 -0.384615    0.00045517  33 t-inv F
 -0.461538 -0.076923 -0.076923    0.00045517  34 t-inv F
  0.076923  0.461538  0.076923    0.00045517  34 t-inv F
 -0.076923 -0.461538 -0.076923    0.00045517  34 t-inv F
  0.076923  0.076923  0.461538    0.00045517  34 t-inv F
 -0.076923 -0.076923 -0.461538    0.00045517  34 t-inv F
 -0.076923  0.461538  0.076923    0.00045517  34 t-inv F
  0.076923 -0.461538 -0.076923    0.00045517  34 t-inv F
 -0.461538  0.076923  0.076923    0.00045517  34 t-inv F
  0.461538 -0.076923 -0.076923    0.00045517  34 t-inv F
 -0.076923  0.076923  0.461538    0.00045517  34 t-inv F
  0.076923 -0.076923 -0.461538    0.00045517  34 t-inv F
 -0.461538 -0.076923  0.076923    0.00045517  34 t-inv F
  0.461538  0.076923 -0.076923    0.00045517  34 t-inv F
 -0.076923 -0.461538  0.076923    0.00045517  34 t-inv F
  0.076923  0.461538 -0.076923    0.00045517  34 t-inv F
 -0.076923 -0.076923  0.461538    0.00045517  34 t-inv F
  0.076923  0.076923 -0.461538    0.00045517  34 t-inv F
  0.076923 -0.461538  0.076923    0.00045517  34 t-inv F
 -0.076923  0.461538 -0.076923    0.00045517  34 t-inv F
  0.461538 -0.076923  0.076923    0.00045517  34 t-inv F
 -0.461538  0.076923 -0.076923    0.00045517  34 t-inv F
  0.076923 -0.076923  0.461538    0.00045517  34 t-inv F
 -0.076923  0.076923 -0.461538    0.00045517  34 t-inv F
 -0.153846 -0.153846 -0.076923    0.00045517  35 t-inv F
  0.076923  0.153846  0.153846    0.00045517  35 t-inv F
 -0.076923 -0.153846 -0.153846    0.00045517  35 t-inv F
  0.153846  0.076923  0.153846    0.00045517  35 t-inv F
 -0.153846 -0.076923 -0.153846    0.00045517  35 t-inv F
 -0.153846  0.153846  0.076923    0.00045517  35 t-inv F
  0.153846 -0.153846 -0.076923    0.00045517  35 t-inv F
 -0.153846  0.076923  0.153846    0.00045517  35 t-inv F
  0.153846 -0.076923 -0.153846    0.00045517  35 t-inv F
 -0.076923  0.153846  0.153846    0.00045517  35 t-inv F
  0.076923 -0.153846 -0.153846    0.00045517  35 t-inv F
 -0.153846 -0.153846  0.076923    0.00045517  35 t-inv F
  0.153846  0.153846 -0.076923    0.00045517  35 t-inv F
 -0.076923 -0.153846  0.153846    0.00045517  35 t-inv F
  0.076923  0.153846 -0.153846    0.00045517  35 t-inv F
 -0.153846 -0.076923  0.153846    0.00045517  35 t-inv F
  0.153846  0.076923 -0.153846    0.00045517  35 t-inv F
  0.153846 -0.153846  0.076923    0.00045517  35 t-inv F
 -0.153846  0.153846 -0.076923    0.00045517  35 t-inv F
  0.153846 -0.076923  0.153846    0.00045517  35 t-inv F
 -0.153846  0.076923 -0.153846    0.00045517  35 t-inv F
  0.076923 -0.153846  0.153846    0.00045517  35 t-inv F
 -0.076923  0.153846 -0.153846    0.00045517  35 t-inv F
 -0.230769 -0.153846 -0.076923    0.00045517  36 t-inv F
  0.076923  0.230769  0.153846    0.00045517  36 t-inv F
 -0.076923 -0.230769 -0.153846    0.00045517  36 t-inv F
  0.153846  0.076923  0.230769    0.00045517  36 t-inv F
 -0.153846 -0.076923 -0.230769    0.00045517  36 t-inv F
 -0.153846  0.230769  0.076923    0.00045517  36 t-inv F
  0.153846 -0.230769 -0.076923    0.00045517  36 t-inv F
 -0.230769  0.076923  0.153846    0.00045517  36 t-inv F
  0.230769 -0.076923 -0.153846    0.00045517  36 t-inv F
 -0.076923  0.153846  0.230769    0.00045517  36 t-inv F
  0.076923 -0.153846 -0.230769    0.00045517  36 t-inv F
 -0.230769 -0.153846  0.076923    0.00045517  36 t-inv F
  0.230769  0.153846 -0.076923    0.00045517  36 t-inv F
 -0.076923 -0.230769  0.153846    0.00045517  36 t-inv F
  0.076923  0.230769 -0.153846    0.00045517  36 t-inv F
 -0.153846 -0.076923  0.230769    0.00045517  36 t-inv F
  0.153846  0.076923 -0.230769    0.00045517  36 t-inv F
  0.153846 -0.230769  0.076923    0.00045517  36 t-inv F
 -0.153846  0.230769 -0.076923    0.00045517  36 t-inv F
  0.230769 -0.076923  0.153846    0.00045517  36 t-inv F
 -0.230769  0.076923 -0.153846    0.00045517  36 t-inv F
  0.076923 -0.153846  0.230769    0.00045517  36 t-inv F
 -0.076923  0.153846 -0.230769    0.00045517  36 t-inv F
  0.076923 -0.230769 -0.153846    0.00045517  36 t-inv F
 -0.076923  0.230769  0.153846    0.00045517  36 t-inv F
  0.153846 -0.076923 -0.230769    0.00045517  36 t-inv F
 -0.153846  0.076923  0.230769    0.00045517  36 t-inv F
  0.230769 -0.153846 -0.076923    0.00045517  36 t-inv F
 -0.230769  0.153846  0.076923    0.00045517  36 t-inv F
  0.076923  0.153846 -0.230769    0.00045517  36 t-inv F
 -0.076923 -0.153846  0.230769    0.00045517  36 t-inv F
  0.153846  0.230769 -0.076923    0.00045517  36 t-inv F
 -0.153846 -0.230769  0.076923    0.00045517  36 t-inv F
  0.230769  0.076923 -0.153846    0.00045517  36 t-inv F
 -0.230769 -0.076923  0.153846    0.00045517  36 t-inv F
 -0.153846  0.076923 -0.230769    0.00045517  36 t-inv F
  0.153846 -0.076923  0.230769    0.00045517  36 t-inv F
 -0.230769  0.153846 -0.076923    0.00045517  36 t-inv F
  0.230769 -0.153846  0.076923    0.00045517  36 t-inv F
 -0.076923  0.230769 -0.153846    0.00045517  36 t-inv F
  0.076923 -0.230769  0.153846    0.00045517  36 t-inv F
 -0.230769 -0.076923 -0.153846    0.00045517  36 t-inv F
  0.230769  0.076923  0.153846    0.00045517  36 t-inv F
 -0.153846 -0.230769 -0.076923    0.00045517  36 t-inv F
  0.153846  0.230769  0.076923    0.00045517  36 t-inv F
 -0.076923 -0.153846 -0.230769    0.00045517  36 t-inv F
  0.076923  0.153846  0.230769    0.00045517  36 t-inv F
 -0.307692 -0.153846 -0.076923    0.00045517  37 t-inv F
  0.076923  0.307692  0.153846    0.00045517  37 t-inv F
 -0.076923 -0.307692 -0.153846    0.00045517  37 t-inv F
  0.153846  0.076923  0.307692    0.00045517  37 t-inv F
 -0.153846 -0.076923 -0.307692    0.00045517  37 t-inv F
 -0.153846  0.307692  0.076923    0.00045517  37 t-inv F
  0.153846 -0.307692 -0.076923    0.00045517  37 t-inv F
 -0.307692  0.076923  0.153846    0.00045517  37 t-inv F
  0.307692 -0.076923 -0.153846    0.00045517  37 t-inv F
 -0.076923  0.153846  0.307692    0.00045517  37 t-inv F
  0.076923 -0.153846 -0.307692    0.00045517  37 t-inv F
 -0.307692 -0.153846  0.076923    0.00045517  37 t-inv F
  0.307692  0.153846 -0.076923    0.00045517  37 t-inv F
 -0.076923 -0.307692  0.153846    0.00045517  37 t-inv F
  0.076923  0.307692 -0.153846    0.00045517  37 t-inv F
 -0.153846 -0.076923  0.307692    0.00045517  37 t-inv F
  0.153846  0.076923 -0.307692    0.00045517  37 t-inv F
  0.153846 -0.307692  0.076923    0.00045517  37 t-inv F
 -0.153846  0.307692 -0.076923    0.00045517  37 t-inv F
  0.307692 -0.076923  0.153846    0.00045517  37 t-inv F
 -0.307692  0.076923 -0.153846    0.00045517  37 t-inv F
  0.076923 -0.153846  0.307692    0.00045517  37 t-inv F
 -0.076923  0.153846 -0.307692    0.00045517  37 t-inv F
  0.076923 -0.307692 -0.153846    0.00045517  37 t-inv F
 -0.076923  0.307692  0.153846    0.00045517  37 t-inv F
  0.153846 -0.076923 -0.307692    0.00045517  37 t-inv F
 -0.153846  0.076923  0.307692    0.00045517  37 t-inv F
  0.307692 -0.153846 -0.076923    0.00045517  37 t-inv F
 -0.307692  0.153846  0.076923    0.00045517  37 t-inv F
  0.076923  0.153846 -0.307692    0.00045517  37 t-inv F
 -0.076923 -0.153846  0.307692    0.00045517  37 t-inv F
  0.153846  0.307692 -0.076923    0.00045517  37 t-inv F
 -0.153846 -0.307692  0.076923    0.00045517  37 t-inv F
  0.307692  0.076923 -0.153846    0.00045517  37 t-inv F
 -0.307692 -0.076923  0.153846    0.00045517  37 t-inv F
 -0.153846  0.076923 -0.307692    0.00045517  37 t-inv F
  0.153846 -0.076923  0.307692    0.00045517  37 t-inv F
 -0.307692  0.153846 -0.076923    0.00045517  37 t-inv F
  0.307692 -0.153846  0.076923    0.00045517  37 t-inv F
 -0.076923  0.307692 -0.153846    0.00045517  37 t-inv F
  0.076923 -0.307692  0.153846    0.00045517  37 t-inv F
 -0.307692 -0.076923 -0.153846    0.00045517  37 t-inv F
  0.307692  0.076923  0.153846    0.00045517  37 t-inv F
 -0.153846 -0.307692 -0.076923    0.00045517  37 t-inv F
  0.153846  0.307692  0.076923    0.00045517  37 t-inv F
 -0.076923 -0.153846 -0.307692    0.00045517  37 t-inv F
  0.076923  0.153846  0.307692    0.00045517  37 t-inv F
 -0.384615 -0.153846 -0.076923    0.00045517  38 t-inv F
  0.076923  0.384615  0.153846    0.00045517  38 t-inv F
 -0.076923 -0.384615 -0.153846    0.00045517  38 t-inv F
  0.153846  0.076923  0.384615    0.00045517  38 t-inv F
 -0.153846 -0.076923 -0.384615    0.00045517  38 t-inv F
 -0.153846  0.384615  0.076923    0.00045517  38 t-inv F
  0.153846 -0.384615 -0.076923    0.00045517  38 t-inv F
 -0.384615  0.076923  0.153846    0.00045517  38 t-inv F
  0.384615 -0.076923 -0.153846    0.00045517  38 t-inv F
 -0.076923  0.153846  0.384615    0.00045517  38 t-inv F
  0.076923 -0.153846 -0.384615    0.00045517  38 t-inv F
 -0.384615 -0.153846  0.076923    0.00045517  38 t-inv F
  0.384615  0.153846 -0.076923    0.00045517  38 t-inv F
 -0.076923 -0.384615  0.153846    0.00045517  38 t-inv F
  0.076923  0.384615 -0.153846    0.00045517  38 t-inv F
 -0.153846 -0.076923  0.384615    0.00045517  38 t-inv F
  0.153846  0.076923 -0.384615    0.00045517  38 t-inv F
  0.153846 -0.384615  0.076923    0.00045517  38 t-inv F
 -0.153846  0.384615 -0.076923    0.00045517  38 t-inv F
  0.384615 -0.076923  0.153846    0.00045517  38 t-inv F
 -0.384615  0.076923 -0.153846    0.00045517  38 t-inv F
  0.076923 -0.153846  0.384615    0.00045517  38 t-inv F
 -0.076923  0.153846 -0.384615    0.00045517  38 t-inv F
  0.076923 -0.384615 -0.153846    0.00045517  38 t-inv F
 -0.076923  0.384615  0.153846    0.00045517  38 t-inv F
  0.153846 -0.076923 -0.384615    0.00045517  38 t-inv F
 -0.153846  0.076923  0.384615    0.00045517  38 t-inv F
  0.384615 -0.153846 -0.076923    0.00045517  38 t-inv F
 -0.384615  0.153846  0.076923    0.00045517  38 t-inv F
  0.076923  0.153846 -0.384615    0.00045517  38 t-inv F
 -0.076923 -0.153846  0.384615    0.00045517  38 t-inv F
  0.153846  0.384615 -0.076923    0.00045517  38 t-inv F
 -0.153846 -0.384615  0.076923    0.00045517  38 t-inv F
  0.384615  0.076923 -0.153846    0.00045517  38 t-inv F
 -0.384615 -0.076923  0.153846    0.00045517  38 t-inv F
 -0.153846  0.076923 -0.384615    0.00045517  38 t-inv F
  0.153846 -0.076923  0.384615    0.00045517  38 t-inv F
 -0.384615  0.153846 -0.076923    0.00045517  38 t-inv F
  0.384615 -0.153846  0.076923    0.00045517  38 t-inv F
 -0.076923  0.384615 -0.153846    0.00045517  38 t-inv F
  0.076923 -0.384615  0.153846    0.00045517  38 t-inv F
 -0.384615 -0.076923 -0.153846    0.00045517  38 t-inv F
  0.384615  0.076923  0.153846    0.00045517  38 t-inv F
 -0.153846 -0.384615 -0.076923    0.00045517  38 t-inv F
  0.153846  0.384615  0.076923    0.00045517  38 t-inv F
 -0.076923 -0.153846 -0.384615    0.00045517  38 t-inv F
  0.076923  0.153846  0.384615    0.00045517  38 t-inv F
 -0.461538 -0.153846 -0.076923    0.00045517  39 t-inv F
  0.076923  0.461538  0.153846    0.00045517  39 t-inv F
 -0.076923 -0.461538 -0.153846    0.00045517  39 t-inv F
  0.153846  0.076923  0.461538    0.00045517  39 t-inv F
 -0.153846 -0.076923 -0.461538    0.00045517  39 t-inv F
 -0.153846  0.461538  0.076923    0.00045517  39 t-inv F
  0.153846 -0.461538 -0.076923    0.00045517  39 t-inv F
 -0.461538  0.076923  0.153846    0.00045517  39 t-inv F
  0.461538 -0.076923 -0.153846    0.00045517  39 t-inv F
 -0.076923  0.153846  0.461538    0.00045517  39 t-inv F
  0.076923 -0.153846 -0.461538    0.00045517  39 t-inv F
 -0.461538 -0.153846  0.076923    0.00045517  39 t-inv F
  0.461538  0.153846 -0.076923    0.00045517  39 t-inv F
 -0.076923 -0.461538  0.153846    0.00045517  39 t-inv F
  0.076923  0.461538 -0.153846    0.00045517  39 t-inv F
 -0.153846 -0.076923  0.461538    0.00045517  39 t-inv F
  0.153846  0.076923 -0.461538    0.00045517  39 t-inv F
  0.153846 -0.461538  0.076923    0.00045517  39 t-inv F
 -0.153846  0.461538 -0.076923    0.00045517  39 t-inv F
  0.461538 -0.076923  0.153846    0.00045517  39 t-inv F
 -0.461538  0.076923 -0.153846    0.00045517  39 t-inv F
  0.076923 -0.153846  0.461538    0.00045517  39 t-inv F
 -0.076923  0.153846 -0.461538    0.00045517  39 t-inv F
  0.076923 -0.461538 -0.153846    0.00045517  39 t-inv F
 -0.076923  0.461538  0.153846    0.00045517  39 t-inv F
  0.153846 -0.076923 -0.461538    0.00045517  39 t-inv F
 -0.153846  0.076923  0.461538    0.00045517  39 t-inv F
  0.461538 -0.153846 -0.076923    0.00045517  39 t-inv F
 -0.461538  0.153846  0.076923    0.00045517  39 t-inv F
  0.076923  0.153846 -0.461538    0.00045517  39 t-inv F
 -0.076923 -0.153846  0.461538    0.00045517  39 t-inv F
  0.153846  0.461538 -0.076923    0.00045517  39 t-inv F
 -0.153846 -0.461538  0.076923    0.00045517  39 t-inv F
  0.461538  0.076923 -0.153846    0.00045517  39 t-inv F
 -0.461538 -0.076923  0.153846    0.00045517  39 t-inv F
 -0.153846  0.076923 -0.461538    0.00045517  39 t-inv F
  0.153846 -0.076923  0.461538    0.00045517  39 t-inv F
 -0.461538  0.153846 -0.076923    0.00045517  39 t-inv F
  0.461538 -0.153846  0.076923    0.00045517  39 t-inv F
 -0.076923  0.461538 -0.153846    0.00045517  39 t-inv F
  0.076923 -0.461538  0.153846    0.00045517  39 t-inv F
 -0.461538 -0.076923 -0.153846    0.00045517  39 t-inv F
  0.461538  0.076923  0.153846    0.00045517  39 t-inv F
 -0.153846 -0.461538 -0.076923    0.00045517  39 t-inv F
  0.153846  0.461538  0.076923    0.00045517  39 t-inv F
 -0.076923 -0.153846 -0.461538    0.00045517  39 t-inv F
  0.076923  0.153846  0.461538    0.00045517  39 t-inv F
 -0.230769 -0.230769 -0.076923    0.00045517  40 t-inv F
  0.076923  0.230769  0.230769    0.00045517  40 t-inv F
 -0.076923 -0.230769 -0.230769    0.00045517  40 t-inv F
  0.230769  0.076923  0.230769    0.00045517  40 t-inv F
 -0.230769 -0.076923 -0.230769    0.00045517  40 t-inv F
 -0.230769  0.230769  0.076923    0.00045517  40 t-inv F
  0.230769 -0.230769 -0.076923    0.00045517  40 t-inv F
 -0.230769  0.076923  0.230769    0.00045517  40 t-inv F
  0.230769 -0.076923 -0.230769    0.00045517  40 t-inv F
 -0.076923  0.230769  0.230769    0.00045517  40 t-inv F
  0.076923 -0.230769 -0.230769    0.00045517  40 t-inv F
 -0.230769 -0.230769  0.076923    0.00045517  40 t-inv F
  0.230769  0.230769 -0.076923    0.00045517  40 t-inv F
 -0.076923 -0.230769  0.230769    0.00045517  40 t-inv F
  0.076923  0.230769 -0.230769    0.00045517  40 t-inv F
 -0.230769 -0.076923  0.230769    0.00045517  40 t-inv F
  0.230769  0.076923 -0.230769    0.00045517  40 t-inv F
  0.230769 -0.230769  0.076923    0.00045517  40 t-inv F
 -0.230769  0.230769 -0.076923    0.00045517  40 t-inv F
  0.230769 -0.076923  0.230769    0.00045517  40 t-inv F
 -0.230769  0.076923 -0.230769    0.00045517  40 t-inv F
  0.076923 -0.230769  0.230769    0.00045517  40 t-inv F
 -0.076923  0.230769 -0.230769    0.00045517  40 t-inv F
 -0.307692 -0.230769 -0.076923    0.00045517  41 t-inv F
  0.076923  0.307692  0.230769    0.00045517  41 t-inv F
 -0.076923 -0.307692 -0.230769    0.00045517  41 t-inv F
  0.230769  0.076923  0.307692    0.00045517  41 t-inv F
 -0.230769 -0.076923 -0.307692    0.00045517  41 t-inv F
 -0.230769  0.307692  0.076923    0.00045517  41 t-inv F
  0.230769 -0.307692 -0.076923    0.00045517  41 t-inv F
 -0.307692  0.076923  0.230769    0.00045517  41 t-inv F
  0.307692 -0.076923 -0.230769    0.00045517  41 t-inv F
 -0.076923  0.230769  0.307692    0.00045517  41 t-inv F
  0.076923 -0.230769 -0.307692    0.00045517  41 t-inv F
 -0.307692 -0.230769  0.076923    0.00045517  41 t-inv F
  0.307692  0.230769 -0.076923    0.00045517  41 t-inv F
 -0.076923 -0.307692  0.230769    0.00045517  41 t-inv F
  0.076923  0.307692 -0.230769    0.00045517  41 t-inv F
 -0.230769 -0.076923  0.307692    0.00045517  41 t-inv F
  0.230769  0.076923 -0.307692    0.00045517  41 t-inv F
  0.230769 -0.307692  0.076923    0.00045517  41 t-inv F
 -0.230769  0.307692 -0.076923    0.00045517  41 t-inv F
  0.307692 -0.076923  0.230769    0.00045517  41 t-inv F
 -0.307692  0.076923 -0.230769    0.00045517  41 t-inv F
  0.076923 -0.230769  0.307692    0.00045517  41 t-inv F
 -0.076923  0.230769 -0.307692    0.00045517  41 t-inv F
  0.076923 -0.307692 -0.230769    0.00045517  41 t-inv F
 -0.076923  0.307692  0.230769    0.00045517  41 t-inv F
  0.230769 -0.076923 -0.307692    0.00045517  41 t-inv F
 -0.230769  0.076923  0.307692    0.00045517  41 t-inv F
  0.307692 -0.230769 -0.076923    0.00045517  41 t-inv F
 -0.307692  0.230769  0.076923    0.00045517  41 t-inv F
  0.076923  0.230769 -0.307692    0.00045517  41 t-inv F
 -0.076923 -0.230769  0.307692    0.00045517  41 t-inv F
  0.230769  0.307692 -0.076923    0.00045517  41 t-inv F
 -0.230769 -0.307692  0.076923    0.00045517  41 t-inv F
  0.307692  0.076923 -0.230769    0.00045517  41 t-inv F
 -0.307692 -0.076923  0.230769    0.00045517  41 t-inv F
 -0.230769  0.076923 -0.307692    0.00045517  41 t-inv F
  0.230769 -0.076923  0.307692    0.00045517  41 t-inv F
 -0.307692  0.230769 -0.076923    0.00045517  41 t-inv F
  0.307692 -0.230769  0.076923    0.00045517  41 t-inv F
 -0.076923  0.307692 -0.230769    0.00045517  41 t-inv F
  0.076923 -0.307692  0.230769    0.00045517  41 t-inv F
 -0.307692 -0.076923 -0.230769    0.00045517  41 t-inv F
  0.307692  0.076923  0.230769    0.00045517  41 t-inv F
 -0.230769 -0.307692 -0.076923    0.00045517  41 t-inv F
  0.230769  0.307692  0.076923    0.00045517  41 t-inv F
 -0.076923 -0.230769 -0.307692    0.00045517  41 t-inv F
  0.076923  0.230769  0.307692    0.00045517  41 t-inv F
 -0.384615 -0.230769 -0.076923    0.00045517  42 t-inv F
  0.076923  0.384615  0.230769    0.00045517  42 t-inv F
 -0.076923 -0.384615 -0.230769    0.00045517  42 t-inv F
  0.230769  0.076923  0.384615    0.00045517  42 t-inv F
 -0.230769 -0.076923 -0.384615    0.00045517  42 t-inv F
 -0.230769  0.384615  0.076923    0.00045517  42 t-inv F
  0.230769 -0.384615 -0.076923    0.00045517  42 t-inv F
 -0.384615  0.076923  0.230769    0.00045517  42 t-inv F
  0.384615 -0.076923 -0.230769    0.00045517  42 t-inv F
 -0.076923  0.230769  0.384615    0.00045517  42 t-inv F
  0.076923 -0.230769 -0.384615    0.00045517  42 t-inv F
 -0.384615 -0.230769  0.076923    0.00045517  42 t-inv F
  0.384615  0.230769 -0.076923    0.00045517  42 t-inv F
 -0.076923 -0.384615  0.230769    0.00045517  42 t-inv F
  0.076923  0.384615 -0.230769    0.00045517  42 t-inv F
 -0.230769 -0.076923  0.384615    0.00045517  42 t-inv F
  0.230769  0.076923 -0.384615    0.00045517  42 t-inv F
  0.230769 -0.384615  0.076923    0.00045517  42 t-inv F
 -0.230769  0.384615 -0.076923    0.00045517  42 t-inv F
  0.384615 -0.076923  0.230769    0.00045517  42 t-inv F
 -0.384615  0.076923 -0.230769    0.00045517  42 t-inv F
  0.076923 -0.230769  0.384615    0.00045517  42 t-inv F
 -0.076923  0.230769 -0.384615    0.00045517  42 t-inv F
  0.076923 -0.384615 -0.230769    0.00045517  42 t-inv F
 -0.076923  0.384615  0.230769    0.00045517  42 t-inv F
  0.230769 -0.076923 -0.384615    0.00045517  42 t-inv F
 -0.230769  0.076923  0.384615    0.00045517  42 t-inv F
  0.384615 -0.230769 -0.076923    0.00045517  42 t-inv F
 -0.384615  0.230769  0.076923    0.00045517  42 t-inv F
  0.076923  0.230769 -0.384615    0.00045517  42 t-inv F
 -0.076923 -0.230769  0.384615    0.00045517  42 t-inv F
  0.230769  0.384615 -0.076923    0.00045517  42 t-inv F
 -0.230769 -0.384615  0.076923    0.00045517  42 t-inv F
  0.384615  0.076923 -0.230769    0.00045517  42 t-inv F
 -0.384615 -0.076923  0.230769    0.00045517  42 t-inv F
 -0.230769  0.076923 -0.384615    0.00045517  42 t-inv F
  0.230769 -0.076923  0.384615    0.00045517  42 t-inv F
 -0.384615  0.230769 -0.076923    0.00045517  42 t-inv F
  0.384615 -0.230769  0.076923    0.00045517  42 t-inv F
 -0.076923  0.384615 -0.230769    0.00045517  42 t-inv F
  0.076923 -0.384615  0.230769    0.00045517  42 t-inv F
 -0.384615 -0.076923 -0.230769    0.00045517  42 t-inv F
  0.384615  0.076923  0.230769    0.00045517  42 t-inv F
 -0.230769 -0.384615 -0.076923    0.00045517  42 t-inv F
  0.230769  0.384615  0.076923    0.00045517  42 t-inv F
 -0.076923 -0.230769 -0.384615    0.00045517  42 t-inv F
  0.076923  0.230769  0.384615    0.00045517  42 t-inv F
 -0.461538 -0.230769 -0.076923    0.00045517  43 t-inv F
  0.076923  0.461538  0.230769    0.00045517  43 t-inv F
 -0.076923 -0.461538 -0.230769    0.00045517  43 t-inv F
  0.230769  0.076923  0.461538    0.00045517  43 t-inv F
 -0.230769 -0.076923 -0.461538    0.00045517  43 t-inv F
 -0.230769  0.461538  0.076923    0.00045517  43 t-inv F
  0.230769 -0.461538 -0.076923    0.00045517  43 t-inv F
 -0.461538  0.076923  0.230769    0.00045517  43 t-inv F
  0.461538 -0.076923 -0.230769    0.00045517  43 t-inv F
 -0.076923  0.230769  0.461538    0.00045517  43 t-inv F
  0.076923 -0.230769 -0.461538    0.00045517  43 t-inv F
 -0.461538 -0.230769  0.076923    0.00045517  43 t-inv F
  0.461538  0.230769 -0.076923    0.00045517  43 t-inv F
 -0.076923 -0.461538  0.230769    0.00045517  43 t-inv F
  0.076923  0.461538 -0.230769    0.00045517  43 t-inv F
 -0.230769 -0.076923  0.461538    0.00045517  43 t-inv F
  0.230769  0.076923 -0.461538    0.00045517  43 t-inv F
  0.230769 -0.461538  0.076923    0.00045517  43 t-inv F
 -0.230769  0.461538 -0.076923    0.00045517  43 t-inv F
  0.461538 -0.076923  0.230769    0.00045517  43 t-inv F
 -0.461538  0.076923 -0.230769    0.00045517  43 t-inv F
[...]
             X         Y         Z           dx          dy          dz
      0.000000  0.000000  0.000000    -0.090633   -0.280008   -0.151372  
      0.000000  2.019846  2.019846     0.090633   -0.373939    0.494420  
      2.019846  0.000000  2.019846    -0.078650    0.280008   -0.494420  
      2.019846  2.019846  0.000000     0.078650    0.373939    0.151372  
 
  10 f/i=    0.000000 THz     0.000002 2PiTHz    0.000011 cm-1     0.000001 meV
             X         Y         Z           dx          dy          dz
      0.000000  0.000000  0.000000     0.469647    0.169873   -0.023966  
      0.000000  2.019846  2.019846     0.469647    0.169873   -0.023966  
      2.019846  0.000000  2.019846     0.469647    0.169873   -0.023966  
      2.019846  2.019846  0.000000     0.469647    0.169873   -0.023966  
 
  11 f/i=    0.000000 THz     0.000002 2PiTHz    0.000013 cm-1     0.000002 meV
             X         Y         Z           dx          dy          dz
      0.000000  0.000000  0.000000    -0.169228    0.470199    0.016567  
      0.000000  2.019846  2.019846    -0.169228    0.470199    0.016567  
      2.019846  0.000000  2.019846    -0.169228    0.470199    0.016567  
      2.019846  2.019846  0.000000    -0.169228    0.470199    0.016567  
 
  12 f/i=    0.000000 THz     0.000002 2PiTHz    0.000013 cm-1     0.000002 meV
             X         Y         Z           dx          dy          dz
      0.000000  0.000000  0.000000     0.028166   -0.007450    0.499150  
      0.000000  2.019846  2.019846     0.028166   -0.007450    0.499150  
      2.019846  0.000000  2.019846     0.028166   -0.007450    0.499150  
      2.019846  2.019846  0.000000     0.028166   -0.007450    0.499150  
 


--------------------------------------------------------------------------------------------------------



 ELASTIC MODULI CONTR FROM IONIC RELAXATION (kBar)
 Direction    XX          YY          ZZ          XY          YZ          ZX
 --------------------------------------------------------------------------------
 XX           0.0000      0.0000      0.0000      0.0000      0.0000     -0.0000
 YY           0.0000      0.0000      0.0000     -0.0000      0.0000     -0.0000
 ZZ           0.0000      0.0000     -0.0000      0.0000      0.0000     -0.0000
 XY           0.0000     -0.0000      0.0000      0.0000     -0.0000     -0.0000
 YZ           0.0000      0.0000      0.0000     -0.0000      0.0000     -0.0000
 ZX          -0.0000     -0.0000     -0.0000     -0.0000     -0.0000      0.0000
 --------------------------------------------------------------------------------


 TOTAL ELASTIC MODULI (kBar)
 Direction    XX          YY          ZZ          XY          YZ          ZX
 --------------------------------------------------------------------------------
 XX        1176.3800    583.4239    583.4239     -0.0000     -0.0000      0.0000
 YY         583.4239   1176.3800    583.4239      0.0000     -0.0000      0.0000
 ZZ         583.4239    583.4239   1176.3800     -0.0000      0.0000      0.0000
 XY          -0.0000      0.0000     -0.0000    347.2682     -0.0000     -0.0000
 YZ          -0.0000     -0.0000      0.0000     -0.0000    347.2682     -0.0000
 ZX           0.0000      0.0000      0.0000     -0.0000     -0.0000    347.2682
 --------------------------------------------------------------------------------



--------------------------------------------------------------------------------------------------------


  LATTYP: Found a simple cubic cell.
 ALAT       =     4.0396918604
  
  Lattice vectors:
  
 A1 = (   4.0396918604,   0.0000000000,   0.0000000000)
 A2 = (   0.0000000000,   4.0396918604,   0.0000000000)
 A3 = (   0.0000000000,   0.0000000000,   4.0396918604)


Analysis of symmetry for initial positions (statically):
=====================================================================
 Subroutine PRICEL returns following result:
 
  LATTYP: Found a face centered cubic cell.
 ALAT       =     4.0396918604
  
  Lattice vectors:
  
 A1 = (   2.0198459302,   2.0198459302,   0.0000000000)
 A2 = (   2.0198459302,   0.0000000000,  -2.0198459302)
 A3 = (   0.0000000000,   2.0198459302,  -2.0198459302)
 
   4 primitive cells build up your supercell.
 

 Routine SETGRP: Setting up the symmetry group for a 
 simple cubic supercell.


 Subroutine GETGRP returns: Found 48 space group operations
 (whereof 48 operations were pure point group operations)
 out of a pool of 48 trial point group operations.


The static configuration has the point symmetry O_h .


Analysis of symmetry for dynamics (positions and initial velocities):
=====================================================================
 Subroutine PRICEL returns following result:
 
  LATTYP: Found a face centered cubic cell.
 ALAT       =     4.0396918604
  
  Lattice vectors:
  
 A1 = (   2.0198459302,   2.0198459302,   0.0000000000)
 A2 = (   2.0198459302,   0.0000000000,  -2.0198459302)
 A3 = (   0.0000000000,   2.0198459302,  -2.0198459302)
 
   4 primitive cells build up your supercell.
 

 Routine SETGRP: Setting up the symmetry group for a 
 simple cubic supercell.


 Subroutine GETGRP returns: Found 48 space group operations
 (whereof 48 operations were pure point group operations)
 out of a pool of 48 trial point group operations.


The dynamic configuration has the point symmetry O_h .


 Subroutine INISYM returns: Found 48 space group operations
 (whereof 48 operations are pure point group operations),
 and found     4 'primitive' translations

 
 KPOINTS: k points                                

Automatic generation of k-mesh.
Space group operators:
 irot       det(A)        alpha          n_x          n_y          n_z        tau_x        tau_y        tau_z
    1     1.000000     0.000000     1.000000     0.000000     0.000000     0.000000     0.000000     0.000000
    2    -1.000000     0.000000     1.000000     0.000000     0.000000     0.000000     0.000000     0.000000
    3     1.000000   120.000000    -0.577350    -0.577350    -0.577350     0.000000     0.000000     0.000000
    4    -1.000000   120.000000    -0.577350    -0.577350    -0.577350     0.000000     0.000000     0.000000
    5     1.000000   120.000000     0.577350     0.577350     0.577350     0.000000     0.000000     0.000000
    6    -1.000000   120.000000     0.577350     0.577350     0.577350     0.000000     0.000000     0.000000
    7     1.000000    90.000000     0.000000     0.000000    -1.000000     0.000000     0.000000     0.000000
    8    -1.000000    90.000000     0.000000     0.000000    -1.000000     0.000000     0.000000     0.000000
    9     1.000000   180.000000     0.000000     0.707107     0.707107     0.000000     0.000000     0.000000
   10    -1.000000   180.000000     0.000000     0.707107     0.707107     0.000000     0.000000     0.000000
   11     1.000000    90.000000     0.000000     1.000000     0.000000     0.000000     0.000000     0.000000
   12    -1.000000    90.000000     0.000000     1.000000     0.000000     0.000000     0.000000     0.000000
   13     1.000000   180.000000     0.000000     0.000000     1.000000     0.000000     0.000000     0.000000
   14    -1.000000   180.000000     0.000000     0.000000     1.000000     0.000000     0.000000     0.000000
   15     1.000000   120.000000    -0.577350     0.577350     0.577350     0.000000     0.000000     0.000000
   16    -1.000000   120.000000    -0.577350     0.577350     0.577350     0.000000     0.000000     0.000000
   17     1.000000   120.000000    -0.577350     0.577350    -0.577350     0.000000     0.000000     0.000000
   18    -1.000000   120.000000    -0.577350     0.577350    -0.577350     0.000000     0.000000     0.000000
   19     1.000000    90.000000     0.000000     0.000000     1.000000     0.000000     0.000000     0.000000
   20    -1.000000    90.000000     0.000000     0.000000     1.000000     0.000000     0.000000     0.000000
   21     1.000000    90.000000    -1.000000     0.000000     0.000000     0.000000     0.000000     0.000000
   22    -1.000000    90.000000    -1.000000     0.000000     0.000000     0.000000     0.000000     0.000000
   23     1.000000   180.000000     0.707107     0.000000     0.707107     0.000000     0.000000     0.000000
   24    -1.000000   180.000000     0.707107     0.000000     0.707107     0.000000     0.000000     0.000000
   25     1.000000   120.000000     0.577350    -0.577350     0.577350     0.000000     0.000000     0.000000
   26    -1.000000   120.000000     0.577350    -0.577350     0.577350     0.000000     0.000000     0.000000
   27     1.000000   120.000000    -0.577350    -0.577350     0.577350     0.000000     0.000000     0.000000
   28    -1.000000   120.000000    -0.577350    -0.577350     0.577350     0.000000     0.000000     0.000000
   29     1.000000   180.000000     1.000000     0.000000     0.000000     0.000000     0.000000     0.000000
   30    -1.000000   180.000000     1.000000     0.000000     0.000000     0.000000     0.000000     0.000000
   31     1.000000    90.000000     0.000000    -1.000000     0.000000     0.000000     0.000000     0.000000
   32    -1.000000    90.000000     0.000000    -1.000000     0.000000     0.000000     0.000000     0.000000
   33     1.000000   180.000000     0.707107     0.707107     0.000000     0.000000     0.000000     0.000000
   34    -1.000000   180.000000     0.707107     0.707107     0.000000     0.000000     0.000000     0.000000
   35     1.000000    90.000000     1.000000     0.000000     0.000000     0.000000     0.000000     0.000000
   36    -1.000000    90.000000     1.000000     0.000000     0.000000     0.000000     0.000000     0.000000
   37     1.000000   120.000000     0.577350    -0.577350    -0.577350     0.000000     0.000000     0.000000
   38    -1.000000   120.000000     0.577350    -0.577350    -0.577350     0.000000     0.000000     0.000000
   39     1.000000   180.000000     0.000000     1.000000     0.000000     0.000000     0.000000     0.000000
   40    -1.000000   180.000000     0.000000     1.000000     0.000000     0.000000     0.000000     0.000000
   41     1.000000   120.000000     0.577350     0.577350    -0.577350     0.000000     0.000000     0.000000
   42    -1.000000   120.000000     0.577350     0.577350    -0.577350     0.000000     0.000000     0.000000
   43     1.000000   180.000000     0.000000    -0.707107     0.707107     0.000000     0.000000     0.000000
   44    -1.000000   180.000000     0.000000    -0.707107     0.707107     0.000000     0.000000     0.000000
   45     1.000000   180.000000     0.707107    -0.707107     0.000000     0.000000     0.000000     0.000000
   46    -1.000000   180.000000     0.707107    -0.707107     0.000000     0.000000     0.000000     0.000000
   47     1.000000   180.000000     0.707107     0.000000    -0.707107     0.000000     0.000000     0.000000
   48    -1.000000   180.000000     0.707107     0.000000    -0.707107     0.000000     0.000000     0.000000
 
 Subroutine IBZKPT returns following result:
 ===========================================
 
 Found     84 irreducible k-points:
 
 Following reciprocal coordinates:
            Coordinates               Weight
  0.000000  0.000000  0.000000      1.000000
  0.076923  0.000000  0.000000      6.000000
  0.153846  0.000000  0.000000      6.000000
  0.230769  0.000000  0.000000      6.000000
  0.307692  0.000000  0.000000      6.000000
  0.384615  0.000000  0.000000      6.000000
  0.461538  0.000000  0.000000      6.000000
  0.076923  0.076923  0.000000     12.000000
  0.153846  0.076923  0.000000     24.000000
  0.230769  0.076923  0.000000     24.000000
  0.307692  0.076923  0.000000     24.000000
  0.384615  0.076923  0.000000     24.000000
  0.461538  0.076923  0.000000     24.000000
  0.153846  0.153846  0.000000     12.000000
  0.230769  0.153846  0.000000     24.000000
  0.307692  0.153846  0.000000     24.000000
  0.384615  0.153846  0.000000     24.000000
  0.461538  0.153846  0.000000     24.000000
  0.230769  0.230769  0.000000     12.000000
  0.307692  0.230769  0.000000     24.000000
  0.384615  0.230769  0.000000     24.000000
  0.461538  0.230769  0.000000     24.000000
  0.307692  0.307692  0.000000     12.000000
  0.384615  0.307692  0.000000     24.000000
  0.461538  0.307692  0.000000     24.000000
  0.384615  0.384615  0.000000     12.000000
  0.461538  0.384615  0.000000     24.000000
  0.461538  0.461538  0.000000     12.000000
  0.076923  0.076923  0.076923      8.000000
  0.153846  0.076923  0.076923     24.000000
  0.230769  0.076923  0.076923     24.000000
  0.307692  0.076923  0.076923     24.000000
  0.384615  0.076923  0.076923     24.000000
  0.461538  0.076923  0.076923     24.000000
  0.153846  0.153846  0.076923     24.000000
  0.230769  0.153846  0.076923     48.000000
  0.307692  0.153846  0.076923     48.000000
  0.384615  0.153846  0.076923     48.000000
  0.461538  0.153846  0.076923     48.000000
  0.230769  0.230769  0.076923     24.000000
  0.307692  0.230769  0.076923     48.000000
  0.384615  0.230769  0.076923     48.000000
  0.461538  0.230769  0.076923     48.000000
  0.307692  0.307692  0.076923     24.000000
  0.384615  0.307692  0.076923     48.000000
  0.461538  0.307692  0.076923     48.000000
  0.384615  0.384615  0.076923     24.000000
  0.461538  0.384615  0.076923     48.000000
  0.461538  0.461538  0.076923     24.000000
  0.153846  0.153846  0.153846      8.000000
  0.230769  0.153846  0.153846     24.000000
  0.307692  0.153846  0.153846     24.000000
  0.384615  0.153846  0.153846     24.000000
  0.461538  0.153846  0.153846     24.000000
  0.230769  0.230769  0.153846     24.000000
  0.307692  0.230769  0.153846     48.000000
  0.384615  0.230769  0.153846     48.000000
  0.461538  0.230769  0.153846     48.000000
  0.307692  0.307692  0.153846     24.000000
  0.384615  0.307692  0.153846     48.000000
  0.461538  0.307692  0.153846     48.000000
  0.384615  0.384615  0.153846     24.000000
  0.461538  0.384615  0.153846     48.000000
  0.461538  0.461538  0.153846     24.000000
  0.230769  0.230769  0.230769      8.000000
  0.307692  0.230769  0.230769     24.000000
  0.384615  0.230769  0.230769     24.000000
  0.461538  0.230769  0.230769     24.000000
  0.307692  0.307692  0.230769     24.000000
  0.384615  0.307692  0.230769     48.000000
  0.461538  0.307692  0.230769     48.000000
  0.384615  0.384615  0.230769     24.000000
  0.461538  0.384615  0.230769     48.000000
  0.461538  0.461538  0.230769     24.000000
  0.307692  0.307692  0.307692      8.000000
  0.384615  0.307692  0.307692     24.000000
  0.461538  0.307692  0.307692     24.000000
  0.384615  0.384615  0.307692     24.000000
  0.461538  0.384615  0.307692     48.000000
  0.461538  0.461538  0.307692     24.000000
  0.384615  0.384615  0.384615      8.000000
  0.461538  0.384615  0.384615     24.000000
  0.461538  0.461538  0.384615     24.000000
  0.461538  0.461538  0.461538      8.000000
 
 Following cartesian coordinates:
            Coordinates               Weight
  0.000000  0.000000  0.000000      1.000000
  0.019042  0.000000  0.000000      6.000000
  0.038084  0.000000  0.000000      6.000000
  0.057125  0.000000  0.000000      6.000000
  0.076167  0.000000  0.000000      6.000000
  0.095209  0.000000  0.000000      6.000000
  0.114251  0.000000  0.000000      6.000000
  0.019042  0.019042  0.000000     12.000000
  0.038084  0.019042  0.000000     24.000000
  0.057125  0.019042  0.000000     24.000000
  0.076167  0.019042  0.000000     24.000000
  0.095209  0.019042  0.000000     24.000000
  0.114251  0.019042  0.000000     24.000000
  0.038084  0.038084  0.000000     12.000000
  0.057125  0.038084  0.000000     24.000000
  0.076167  0.038084  0.000000     24.000000
  0.095209  0.038084  0.000000     24.000000
  0.114251  0.038084  0.000000     24.000000
  0.057125  0.057125  0.000000     12.000000
  0.076167  0.057125  0.000000     24.000000
  0.095209  0.057125  0.000000     24.000000
  0.114251  0.057125  0.000000     24.000000
  0.076167  0.076167  0.000000     12.000000
  0.095209  0.076167  0.000000     24.000000
  0.114251  0.076167  0.000000     24.000000
  0.095209  0.095209  0.000000     12.000000
  0.114251  0.095209  0.000000     24.000000
  0.114251  0.114251  0.000000     12.000000
  0.019042  0.019042  0.019042      8.000000
  0.038084  0.019042  0.019042     24.000000
  0.057125  0.019042  0.019042     24.000000
  0.076167  0.019042  0.019042     24.000000
  0.095209  0.019042  0.019042     24.000000
  0.114251  0.019042  0.019042     24.000000
  0.038084  0.038084  0.019042     24.000000
  0.057125  0.038084  0.019042     48.000000
  0.076167  0.038084  0.019042     48.000000
  0.095209  0.038084  0.019042     48.000000
  0.114251  0.038084  0.019042     48.000000
  0.057125  0.057125  0.019042     24.000000
  0.076167  0.057125  0.019042     48.000000
  0.095209  0.057125  0.019042     48.000000
  0.114251  0.057125  0.019042     48.000000
  0.076167  0.076167  0.019042     24.000000
  0.095209  0.076167  0.019042     48.000000
  0.114251  0.076167  0.019042     48.000000
  0.095209  0.095209  0.019042     24.000000
  0.114251  0.095209  0.019042     48.000000
  0.114251  0.114251  0.019042     24.000000
  0.038084  0.038084  0.038084      8.000000
  0.057125  0.038084  0.038084     24.000000
  0.076167  0.038084  0.038084     24.000000
  0.095209  0.038084  0.038084     24.000000
  0.114251  0.038084  0.038084     24.000000
  0.057125  0.057125  0.038084     24.000000
  0.076167  0.057125  0.038084     48.000000
  0.095209  0.057125  0.038084     48.000000
  0.114251  0.057125  0.038084     48.000000
  0.076167  0.076167  0.038084     24.000000
  0.095209  0.076167  0.038084     48.000000
  0.114251  0.076167  0.038084     48.000000
  0.095209  0.095209  0.038084     24.000000
  0.114251  0.095209  0.038084     48.000000
  0.114251  0.114251  0.038084     24.000000
  0.057125  0.057125  0.057125      8.000000
  0.076167  0.057125  0.057125     24.000000
  0.095209  0.057125  0.057125     24.000000
  0.114251  0.057125  0.057125     24.000000
  0.076167  0.076167  0.057125     24.000000
  0.095209  0.076167  0.057125     48.000000
  0.114251  0.076167  0.057125     48.000000
  0.095209  0.095209  0.057125     24.000000
  0.114251  0.095209  0.057125     48.000000
  0.114251  0.114251  0.057125     24.000000
  0.076167  0.076167  0.076167      8.000000
  0.095209  0.076167  0.076167     24.000000
  0.114251  0.076167  0.076167     24.000000
  0.095209  0.095209  0.076167     24.000000
  0.114251  0.095209  0.076167     48.000000
  0.114251  0.114251  0.076167     24.000000
  0.095209  0.095209  0.095209      8.000000
  0.114251  0.095209  0.095209     24.000000
  0.114251  0.114251  0.095209     24.000000
  0.114251  0.114251  0.114251      8.000000
 
 writing wavefunctions
     LOOP+:  cpu time   53.5151: real time   53.6929
    4ORBIT:  cpu time    0.0000: real time    0.0000

 total amount of memory used by VASP MPI-rank0    50103. kBytes
=======================================================================

   base      :      30000. kBytes
   nonl-proj :       9770. kBytes
   fftplans  :       1025. kBytes
   grid      :       1926. kBytes
   one-center:         12. kBytes
   wavefun   :       7370. kBytes
 
  
  
 General timing and accounting informations for this job:
 ========================================================
  
                  Total CPU time used (sec):     1521.575
                            User time (sec):      591.071
                          System time (sec):      930.504
                         Elapsed time (sec):     1528.178
  
                   Maximum memory used (kb):      341276.
                   Average memory used (kb):           0.
  
                          Minor page faults:       253581
                          Major page faults:         1084
                 Voluntary context switches:         2400
