  16  16   1   0
  0.1303287E+02  0.3732362E-09  0.3732362E-09  0.1496899E-08  0.5000000E-15
  1.000000000000000E-004
  CAR 
 unknown system                          
     18.13644166     -3.22301992  301      9.94965812      1.00000000
     -3.223  0.0000E+00  0.0000E+00  0.0000E+00  0.0000E+00
     -3.152  0.0000E+00  0.0000E+00  0.0000E+00  0.0000E+00
     -3.081  0.0000E+00  0.0000E+00  0.0000E+00  0.0000E+00
     -3.009  0.0000E+00  0.0000E+00  0.0000E+00  0.0000E+00
     -2.938  0.0000E+00  0.0000E+00  0.0000E+00  0.0000E+00
     -2.867  0.0000E+00  0.0000E+00  0.0000E+00  0.0000E+00
     -2.796  0.0000E+00  0.0000E+00  0.0000E+00  0.0000E+00
     -2.725  0.0000E+00  0.0000E+00  0.0000E+00  0.0000E+00
     -2.653  0.1925E-04  0.1913E-04  0.1371E-05  0.1362E-05
     -2.582  0.1091E-03  0.1085E-03  0.9140E-05  0.9085E-05
     -2.511  0.4266E-03  0.4240E-03  0.3951E-04  0.3927E-04
     -2.440  0.1750E-02  0.1739E-02  0.1641E-03  0.1631E-03
     -2.369  0.7083E-02  0.7042E-02  0.6684E-03  0.6645E-03
     -2.297  0.2606E-01  0.2593E-01  0.2524E-02  0.2510E-02
     -2.226  0.7733E-01  0.7702E-01  0.8030E-02  0.7994E-02
     -2.155  0.1655E+00  0.1651E+00  0.1982E-01  0.1975E-01
     -2.084  0.2464E+00  0.2461E+00  0.3736E-01  0.3728E-01
     -2.013  0.2943E+00  0.2941E+00  0.5831E-01  0.5821E-01
     -1.941  0.3788E+00  0.3783E+00  0.8528E-01  0.8515E-01
     -1.870  0.4770E+00  0.4768E+00  0.1192E+00  0.1191E+00
     -1.799  0.4524E+00  0.4527E+00  0.1515E+00  0.1513E+00
     -1.728  0.4240E+00  0.4238E+00  0.1817E+00  0.1815E+00
     -1.657  0.5493E+00  0.5486E+00  0.2208E+00  0.2206E+00
     -1.585  0.6471E+00  0.6470E+00  0.2669E+00  0.2667E+00
     -1.514  0.6254E+00  0.6256E+00  0.3114E+00  0.3112E+00
     -1.443  0.6158E+00  0.6157E+00  0.3553E+00  0.3551E+00
     -1.372  0.6824E+00  0.6821E+00  0.4039E+00  0.4037E+00
     -1.301  0.7239E+00  0.7240E+00  0.4555E+00  0.4553E+00
     -1.229  0.6603E+00  0.6605E+00  0.5025E+00  0.5023E+00
     -1.158  0.6936E+00  0.6931E+00  0.5519E+00  0.5517E+00
     -1.087  0.8197E+00  0.8192E+00  0.6103E+00  0.6100E+00
     -1.016  0.8871E+00  0.8868E+00  0.6735E+00  0.6732E+00
     -0.945  0.9387E+00  0.9386E+00  0.7404E+00  0.7401E+00
     -0.873  0.8828E+00  0.8832E+00  0.8033E+00  0.8030E+00
     -0.802  0.8026E+00  0.8027E+00  0.8604E+00  0.8602E+00
     -0.731  0.8041E+00  0.8040E+00  0.9177E+00  0.9175E+00
     -0.660  0.8554E+00  0.8550E+00  0.9787E+00  0.9784E+00
     -0.589  0.9867E+00  0.9861E+00  0.1049E+01  0.1049E+01
     -0.517  0.1059E+01  0.1059E+01  0.1124E+01  0.1124E+01
     -0.446  0.1088E+01  0.1087E+01  0.1202E+01  0.1202E+01
     -0.375  0.1171E+01  0.1170E+01  0.1285E+01  0.1285E+01
     -0.304  0.1093E+01  0.1094E+01  0.1363E+01  0.1363E+01
     -0.233  0.8879E+00  0.8884E+00  0.1426E+01  0.1426E+01
     -0.161  0.9172E+00  0.9165E+00  0.1492E+01  0.1491E+01
     -0.090  0.1114E+01  0.1113E+01  0.1571E+01  0.1571E+01
     -0.019  0.1282E+01  0.1282E+01  0.1662E+01  0.1662E+01
      0.052  0.1311E+01  0.1311E+01  0.1756E+01  0.1755E+01
      0.123  0.1289E+01  0.1289E+01  0.1848E+01  0.1847E+01
      0.194  0.1262E+01  0.1262E+01  0.1938E+01  0.1937E+01
      0.266  0.1191E+01  0.1191E+01  0.2022E+01  0.2022E+01
      0.337  0.1192E+01  0.1192E+01  0.2107E+01  0.2107E+01
      0.408  0.1230E+01  0.1229E+01  0.2195E+01  0.2195E+01
      0.479  0.1386E+01  0.1385E+01  0.2294E+01  0.2293E+01
      0.550  0.1451E+01  0.1451E+01  0.2397E+01  0.2397E+01
      0.622  0.1304E+01  0.1305E+01  0.2490E+01  0.2490E+01
      0.693  0.1163E+01  0.1163E+01  0.2573E+01  0.2572E+01
      0.764  0.1114E+01  0.1114E+01  0.2652E+01  0.2652E+01
      0.835  0.1180E+01  0.1179E+01  0.2736E+01  0.2736E+01
      0.906  0.1362E+01  0.1362E+01  0.2833E+01  0.2833E+01
      0.978  0.1482E+01  0.1482E+01  0.2939E+01  0.2939E+01
      1.049  0.1566E+01  0.1566E+01  0.3051E+01  0.3050E+01
      1.120  0.1497E+01  0.1497E+01  0.3157E+01  0.3157E+01
      1.191  0.1356E+01  0.1356E+01  0.3254E+01  0.3253E+01
      1.262  0.1324E+01  0.1324E+01  0.3348E+01  0.3348E+01
      1.334  0.1367E+01  0.1367E+01  0.3445E+01  0.3445E+01
      1.405  0.1516E+01  0.1515E+01  0.3553E+01  0.3553E+01
      1.476  0.1595E+01  0.1595E+01  0.3667E+01  0.3667E+01
      1.547  0.1559E+01  0.1560E+01  0.3778E+01  0.3778E+01
      1.618  0.1481E+01  0.1481E+01  0.3884E+01  0.3883E+01
      1.690  0.1437E+01  0.1437E+01  0.3986E+01  0.3986E+01
      1.761  0.1521E+01  0.1520E+01  0.4094E+01  0.4094E+01
      1.832  0.1640E+01  0.1640E+01  0.4211E+01  0.4211E+01
      1.903  0.1854E+01  0.1853E+01  0.4343E+01  0.4343E+01
      1.974  0.1932E+01  0.1933E+01  0.4481E+01  0.4481E+01
      2.046  0.1750E+01  0.1751E+01  0.4606E+01  0.4605E+01
      2.117  0.1558E+01  0.1558E+01  0.4717E+01  0.4716E+01
      2.188  0.1575E+01  0.1575E+01  0.4829E+01  0.4829E+01
      2.259  0.1672E+01  0.1672E+01  0.4948E+01  0.4948E+01
      2.330  0.1663E+01  0.1663E+01  0.5067E+01  0.5066E+01
      2.402  0.1801E+01  0.1800E+01  0.5195E+01  0.5194E+01
      2.473  0.1847E+01  0.1847E+01  0.5327E+01  0.5326E+01
      2.544  0.1737E+01  0.1738E+01  0.5450E+01  0.5450E+01
      2.615  0.1852E+01  0.1851E+01  0.5582E+01  0.5582E+01
      2.686  0.2043E+01  0.2043E+01  0.5728E+01  0.5727E+01
      2.758  0.2035E+01  0.2035E+01  0.5873E+01  0.5872E+01
      2.829  0.1932E+01  0.1933E+01  0.6011E+01  0.6010E+01
      2.900  0.1869E+01  0.1869E+01  0.6144E+01  0.6143E+01
      2.971  0.1924E+01  0.1923E+01  0.6281E+01  0.6280E+01
      3.042  0.2044E+01  0.2044E+01  0.6427E+01  0.6426E+01
      3.114  0.2140E+01  0.2139E+01  0.6579E+01  0.6578E+01
      3.185  0.2272E+01  0.2271E+01  0.6741E+01  0.6740E+01
      3.256  0.2196E+01  0.2197E+01  0.6897E+01  0.6897E+01
      3.327  0.2025E+01  0.2026E+01  0.7042E+01  0.7041E+01
      3.398  0.2018E+01  0.2018E+01  0.7185E+01  0.7185E+01
      3.470  0.2001E+01  0.2002E+01  0.7328E+01  0.7328E+01
      3.541  0.2026E+01  0.2025E+01  0.7472E+01  0.7472E+01
      3.612  0.2358E+01  0.2357E+01  0.7640E+01  0.7640E+01
      3.683  0.2642E+01  0.2642E+01  0.7829E+01  0.7828E+01
      3.754  0.2744E+01  0.2744E+01  0.8024E+01  0.8023E+01
      3.826  0.2814E+01  0.2815E+01  0.8225E+01  0.8224E+01
      3.897  0.2695E+01  0.2696E+01  0.8416E+01  0.8416E+01
      3.968  0.2634E+01  0.2634E+01  0.8604E+01  0.8604E+01
      4.039  0.2687E+01  0.2687E+01  0.8796E+01  0.8795E+01
      4.110  0.2808E+01  0.2808E+01  0.8996E+01  0.8995E+01
      4.182  0.2712E+01  0.2713E+01  0.9189E+01  0.9188E+01
      4.253  0.2588E+01  0.2588E+01  0.9373E+01  0.9373E+01
      4.324  0.2684E+01  0.2683E+01  0.9564E+01  0.9564E+01
      4.395  0.3071E+01  0.3070E+01  0.9783E+01  0.9783E+01
      4.466  0.3473E+01  0.3474E+01  0.1003E+02  0.1003E+02
      4.538  0.3478E+01  0.3478E+01  0.1028E+02  0.1028E+02
      4.609  0.3587E+01  0.3588E+01  0.1053E+02  0.1053E+02
      4.680  0.3906E+01  0.3906E+01  0.1081E+02  0.1081E+02
      4.751  0.4192E+01  0.4192E+01  0.1111E+02  0.1111E+02
      4.822  0.4613E+01  0.4613E+01  0.1144E+02  0.1144E+02
      4.894  0.4935E+01  0.4936E+01  0.1179E+02  0.1179E+02
      4.965  0.5348E+01  0.5350E+01  0.1217E+02  0.1217E+02
      5.036  0.6316E+01  0.6319E+01  0.1262E+02  0.1262E+02
      5.107  0.7444E+01  0.7446E+01  0.1315E+02  0.1315E+02
      5.178  0.8297E+01  0.8300E+01  0.1374E+02  0.1374E+02
      5.250  0.9287E+01  0.9289E+01  0.1440E+02  0.1441E+02
      5.321  0.1077E+02  0.1078E+02  0.1517E+02  0.1517E+02
      5.392  0.1301E+02  0.1302E+02  0.1610E+02  0.1610E+02
      5.463  0.1537E+02  0.1538E+02  0.1719E+02  0.1719E+02
      5.534  0.1650E+02  0.1650E+02  0.1837E+02  0.1837E+02
      5.606  0.1641E+02  0.1641E+02  0.1954E+02  0.1954E+02
      5.677  0.1684E+02  0.1684E+02  0.2074E+02  0.2074E+02
      5.748  0.1850E+02  0.1850E+02  0.2205E+02  0.2206E+02
      5.819  0.1956E+02  0.1956E+02  0.2345E+02  0.2345E+02
      5.890  0.1704E+02  0.1703E+02  0.2466E+02  0.2466E+02
      5.962  0.1175E+02  0.1174E+02  0.2550E+02  0.2550E+02
      6.033  0.6976E+01  0.6975E+01  0.2600E+02  0.2600E+02
      6.104  0.6897E+01  0.6911E+01  0.2649E+02  0.2649E+02
      6.175  0.1043E+02  0.1044E+02  0.2723E+02  0.2723E+02
      6.246  0.1100E+02  0.1099E+02  0.2802E+02  0.2802E+02
      6.318  0.8787E+01  0.8776E+01  0.2864E+02  0.2864E+02
      6.389  0.6705E+01  0.6698E+01  0.2912E+02  0.2912E+02
      6.460  0.5430E+01  0.5426E+01  0.2951E+02  0.2951E+02
      6.531  0.4780E+01  0.4778E+01  0.2985E+02  0.2985E+02
      6.602  0.4449E+01  0.4448E+01  0.3017E+02  0.3017E+02
      6.674  0.4265E+01  0.4264E+01  0.3047E+02  0.3047E+02
      6.745  0.4054E+01  0.4053E+01  0.3076E+02  0.3076E+02
      6.816  0.3964E+01  0.3962E+01  0.3104E+02  0.3104E+02
      6.887  0.4084E+01  0.4083E+01  0.3133E+02  0.3133E+02
      6.958  0.4241E+01  0.4240E+01  0.3163E+02  0.3163E+02
      7.030  0.4063E+01  0.4062E+01  0.3192E+02  0.3192E+02
      7.101  0.3543E+01  0.3543E+01  0.3218E+02  0.3218E+02
      7.172  0.2879E+01  0.2879E+01  0.3238E+02  0.3238E+02
      7.243  0.2551E+01  0.2550E+01  0.3256E+02  0.3256E+02
      7.314  0.2746E+01  0.2745E+01  0.3276E+02  0.3276E+02
      7.386  0.3125E+01  0.3124E+01  0.3298E+02  0.3298E+02
      7.457  0.2984E+01  0.2984E+01  0.3319E+02  0.3319E+02
      7.528  0.2539E+01  0.2539E+01  0.3338E+02  0.3337E+02
      7.599  0.2435E+01  0.2435E+01  0.3355E+02  0.3355E+02
      7.670  0.2596E+01  0.2596E+01  0.3373E+02  0.3373E+02
      7.742  0.2656E+01  0.2656E+01  0.3392E+02  0.3392E+02
      7.813  0.2545E+01  0.2545E+01  0.3410E+02  0.3410E+02
      7.884  0.2397E+01  0.2397E+01  0.3428E+02  0.3427E+02
      7.955  0.2101E+01  0.2102E+01  0.3442E+02  0.3442E+02
      8.026  0.2061E+01  0.2060E+01  0.3457E+02  0.3457E+02
      8.097  0.2587E+01  0.2586E+01  0.3476E+02  0.3476E+02
      8.169  0.3095E+01  0.3094E+01  0.3498E+02  0.3498E+02
      8.240  0.3177E+01  0.3176E+01  0.3520E+02  0.3520E+02
      8.311  0.3182E+01  0.3182E+01  0.3543E+02  0.3543E+02
      8.382  0.3159E+01  0.3159E+01  0.3565E+02  0.3565E+02
      8.453  0.3065E+01  0.3065E+01  0.3587E+02  0.3587E+02
      8.525  0.3024E+01  0.3024E+01  0.3609E+02  0.3609E+02
      8.596  0.2934E+01  0.2935E+01  0.3630E+02  0.3630E+02
      8.667  0.2848E+01  0.2849E+01  0.3650E+02  0.3650E+02
      8.738  0.2676E+01  0.2676E+01  0.3669E+02  0.3669E+02
      8.809  0.2597E+01  0.2597E+01  0.3688E+02  0.3688E+02
      8.881  0.2671E+01  0.2671E+01  0.3707E+02  0.3707E+02
      8.952  0.2539E+01  0.2540E+01  0.3725E+02  0.3725E+02
      9.023  0.2464E+01  0.2464E+01  0.3742E+02  0.3742E+02
      9.094  0.2694E+01  0.2693E+01  0.3761E+02  0.3761E+02
      9.165  0.2966E+01  0.2965E+01  0.3783E+02  0.3783E+02
      9.237  0.2982E+01  0.2983E+01  0.3804E+02  0.3804E+02
      9.308  0.2841E+01  0.2842E+01  0.3824E+02  0.3824E+02
      9.379  0.2823E+01  0.2823E+01  0.3844E+02  0.3844E+02
      9.450  0.2943E+01  0.2943E+01  0.3865E+02  0.3865E+02
      9.521  0.2821E+01  0.2821E+01  0.3885E+02  0.3885E+02
      9.593  0.2629E+01  0.2629E+01  0.3904E+02  0.3904E+02
      9.664  0.2498E+01  0.2498E+01  0.3922E+02  0.3922E+02
      9.735  0.2638E+01  0.2638E+01  0.3941E+02  0.3941E+02
      9.806  0.2776E+01  0.2776E+01  0.3960E+02  0.3960E+02
      9.877  0.2800E+01  0.2800E+01  0.3980E+02  0.3980E+02
      9.949  0.2724E+01  0.2724E+01  0.4000E+02  0.4000E+02
     10.020  0.2675E+01  0.2675E+01  0.4019E+02  0.4019E+02
     10.091  0.2530E+01  0.2531E+01  0.4037E+02  0.4037E+02
     10.162  0.2472E+01  0.2472E+01  0.4054E+02  0.4054E+02
     10.233  0.2852E+01  0.2850E+01  0.4075E+02  0.4075E+02
     10.305  0.3198E+01  0.3197E+01  0.4098E+02  0.4097E+02
     10.376  0.3057E+01  0.3057E+01  0.4119E+02  0.4119E+02
     10.447  0.2811E+01  0.2812E+01  0.4139E+02  0.4139E+02
     10.518  0.2738E+01  0.2738E+01  0.4159E+02  0.4159E+02
     10.589  0.2536E+01  0.2537E+01  0.4177E+02  0.4177E+02
     10.661  0.2383E+01  0.2384E+01  0.4194E+02  0.4194E+02
     10.732  0.2623E+01  0.2621E+01  0.4213E+02  0.4213E+02
     10.803  0.2987E+01  0.2987E+01  0.4234E+02  0.4234E+02
     10.874  0.2753E+01  0.2755E+01  0.4254E+02  0.4253E+02
     10.945  0.2294E+01  0.2295E+01  0.4270E+02  0.4270E+02
     11.017  0.2128E+01  0.2128E+01  0.4285E+02  0.4285E+02
     11.088  0.2358E+01  0.2356E+01  0.4302E+02  0.4302E+02
     11.159  0.3036E+01  0.3034E+01  0.4323E+02  0.4323E+02
     11.230  0.3230E+01  0.3230E+01  0.4346E+02  0.4346E+02
     11.301  0.2954E+01  0.2955E+01  0.4368E+02  0.4367E+02
     11.373  0.2872E+01  0.2872E+01  0.4388E+02  0.4388E+02
     11.444  0.2941E+01  0.2941E+01  0.4409E+02  0.4409E+02
     11.515  0.2939E+01  0.2940E+01  0.4430E+02  0.4430E+02
     11.586  0.2728E+01  0.2729E+01  0.4449E+02  0.4449E+02
     11.657  0.2300E+01  0.2301E+01  0.4466E+02  0.4466E+02
     11.729  0.1952E+01  0.1952E+01  0.4480E+02  0.4480E+02
     11.800  0.2026E+01  0.2025E+01  0.4494E+02  0.4494E+02
     11.871  0.2546E+01  0.2543E+01  0.4512E+02  0.4512E+02
     11.942  0.3298E+01  0.3296E+01  0.4536E+02  0.4536E+02
     12.013  0.3699E+01  0.3698E+01  0.4562E+02  0.4562E+02
     12.085  0.3595E+01  0.3596E+01  0.4588E+02  0.4588E+02
     12.156  0.3507E+01  0.3506E+01  0.4613E+02  0.4613E+02
     12.227  0.3636E+01  0.3637E+01  0.4639E+02  0.4638E+02
     12.298  0.3425E+01  0.3426E+01  0.4663E+02  0.4663E+02
     12.369  0.3067E+01  0.3068E+01  0.4685E+02  0.4685E+02
     12.441  0.2674E+01  0.2675E+01  0.4704E+02  0.4704E+02
     12.512  0.2432E+01  0.2433E+01  0.4721E+02  0.4721E+02
     12.583  0.2658E+01  0.2656E+01  0.4740E+02  0.4740E+02
     12.654  0.3183E+01  0.3181E+01  0.4763E+02  0.4763E+02
     12.725  0.3399E+01  0.3399E+01  0.4787E+02  0.4787E+02
     12.797  0.3389E+01  0.3389E+01  0.4811E+02  0.4811E+02
     12.868  0.3324E+01  0.3325E+01  0.4835E+02  0.4835E+02
     12.939  0.3138E+01  0.3139E+01  0.4857E+02  0.4857E+02
     13.010  0.3050E+01  0.3050E+01  0.4879E+02  0.4879E+02
     13.081  0.3055E+01  0.3055E+01  0.4901E+02  0.4901E+02
     13.153  0.2966E+01  0.2966E+01  0.4922E+02  0.4922E+02
     13.224  0.3107E+01  0.3106E+01  0.4944E+02  0.4944E+02
     13.295  0.3114E+01  0.3114E+01  0.4966E+02  0.4966E+02
     13.366  0.2927E+01  0.2928E+01  0.4987E+02  0.4987E+02
     13.437  0.2771E+01  0.2771E+01  0.5007E+02  0.5007E+02
     13.509  0.2534E+01  0.2534E+01  0.5025E+02  0.5025E+02
     13.580  0.2532E+01  0.2532E+01  0.5043E+02  0.5043E+02
     13.651  0.2647E+01  0.2646E+01  0.5062E+02  0.5062E+02
     13.722  0.2688E+01  0.2687E+01  0.5081E+02  0.5081E+02
     13.793  0.2881E+01  0.2878E+01  0.5101E+02  0.5101E+02
     13.865  0.3231E+01  0.3227E+01  0.5124E+02  0.5124E+02
     13.936  0.3179E+01  0.3180E+01  0.5147E+02  0.5147E+02
     14.007  0.2822E+01  0.2823E+01  0.5167E+02  0.5167E+02
     14.078  0.3033E+01  0.3025E+01  0.5189E+02  0.5189E+02
     14.149  0.3670E+01  0.3649E+01  0.5215E+02  0.5215E+02
     14.221  0.3864E+01  0.3871E+01  0.5242E+02  0.5242E+02
     14.292  0.3294E+01  0.3341E+01  0.5266E+02  0.5266E+02
     14.363  0.2801E+01  0.2832E+01  0.5286E+02  0.5286E+02
     14.434  0.2757E+01  0.2730E+01  0.5305E+02  0.5306E+02
     14.505  0.2911E+01  0.2865E+01  0.5326E+02  0.5326E+02
     14.577  0.2946E+01  0.2921E+01  0.5347E+02  0.5347E+02
     14.648  0.2863E+01  0.2866E+01  0.5368E+02  0.5367E+02
     14.719  0.2753E+01  0.2868E+01  0.5387E+02  0.5388E+02
     14.790  0.2720E+01  0.2844E+01  0.5407E+02  0.5408E+02
     14.861  0.2676E+01  0.2684E+01  0.5426E+02  0.5427E+02
     14.933  0.2400E+01  0.2313E+01  0.5443E+02  0.5444E+02
     15.004  0.2017E+01  0.1943E+01  0.5457E+02  0.5457E+02
     15.075  0.1658E+01  0.1639E+01  0.5469E+02  0.5469E+02
     15.146  0.1512E+01  0.1467E+01  0.5480E+02  0.5480E+02
     15.217  0.1855E+01  0.1671E+01  0.5493E+02  0.5491E+02
     15.289  0.2321E+01  0.2099E+01  0.5510E+02  0.5506E+02
     15.360  0.1977E+01  0.1963E+01  0.5524E+02  0.5520E+02
     15.431  0.1253E+01  0.1376E+01  0.5533E+02  0.5530E+02
     15.502  0.7787E+00  0.9085E+00  0.5538E+02  0.5537E+02
     15.573  0.5197E+00  0.6229E+00  0.5542E+02  0.5541E+02
     15.645  0.5023E+00  0.5775E+00  0.5545E+02  0.5545E+02
     15.716  0.6363E+00  0.7107E+00  0.5550E+02  0.5550E+02
     15.787  0.6377E+00  0.7740E+00  0.5555E+02  0.5556E+02
     15.858  0.5747E+00  0.6619E+00  0.5559E+02  0.5561E+02
     15.929  0.6937E+00  0.5517E+00  0.5564E+02  0.5565E+02
     16.000  0.7879E+00  0.6065E+00  0.5569E+02  0.5569E+02
     16.072  0.7335E+00  0.6440E+00  0.5574E+02  0.5573E+02
     16.143  0.5343E+00  0.4941E+00  0.5578E+02  0.5577E+02
     16.214  0.3294E+00  0.3746E+00  0.5581E+02  0.5580E+02
     16.285  0.2685E+00  0.3467E+00  0.5582E+02  0.5582E+02
     16.356  0.3168E+00  0.3560E+00  0.5585E+02  0.5585E+02
     16.428  0.2978E+00  0.3093E+00  0.5587E+02  0.5587E+02
     16.499  0.2963E+00  0.3082E+00  0.5589E+02  0.5589E+02
     16.570  0.3903E+00  0.4319E+00  0.5592E+02  0.5592E+02
     16.641  0.3615E+00  0.3963E+00  0.5594E+02  0.5595E+02
     16.712  0.2407E+00  0.2020E+00  0.5596E+02  0.5596E+02
     16.784  0.1446E+00  0.8884E-01  0.5597E+02  0.5597E+02
     16.855  0.6061E-01  0.5423E-01  0.5597E+02  0.5597E+02
     16.926  0.2188E-01  0.2927E-01  0.5598E+02  0.5598E+02
     16.997  0.2114E-01  0.2156E-01  0.5598E+02  0.5598E+02
     17.068  0.5676E-01  0.4850E-01  0.5598E+02  0.5598E+02
     17.140  0.1084E+00  0.9986E-01  0.5599E+02  0.5599E+02
     17.211  0.9269E-01  0.1001E+00  0.5600E+02  0.5600E+02
     17.282  0.3793E-01  0.4793E-01  0.5600E+02  0.5600E+02
     17.353  0.1073E-01  0.1463E-01  0.5600E+02  0.5600E+02
     17.424  0.2692E-02  0.3758E-02  0.5600E+02  0.5600E+02
     17.496  0.6548E-03  0.9197E-03  0.5600E+02  0.5600E+02
     17.567  0.0000E+00  0.0000E+00  0.5600E+02  0.5600E+02
     17.638  0.0000E+00  0.0000E+00  0.5600E+02  0.5600E+02
     17.709  0.0000E+00  0.0000E+00  0.5600E+02  0.5600E+02
     17.780  0.0000E+00  0.0000E+00  0.5600E+02  0.5600E+02
     17.852  0.0000E+00  0.0000E+00  0.5600E+02  0.5600E+02
     17.923  0.0000E+00  0.0000E+00  0.5600E+02  0.5600E+02
     17.994  0.0000E+00  0.0000E+00  0.5600E+02  0.5600E+02
     18.065  0.0000E+00  0.0000E+00  0.5600E+02  0.5600E+02
     18.136  0.0000E+00  0.0000E+00  0.5600E+02  0.5600E+02
     18.13644166     -3.22301992  301      9.94965812      1.00000000
     -3.223  0.0000E+00  0.0000E+00  0.0000E+00  0.0000E+00  0.0000E+00  0.0000E+00  0.0000E+00  0.0000E+00  0.0000E+00  0.0000E+00  0.0000E+00  0.0000E+00  0.0000E+00  0.0000E+00  0.0000E+00  0.0000E+00  0.0000E+00  0.0000E+00
     -3.152  0.0000E+00  0.0000E+00  0.0000E+00  0.0000E+00  0.0000E+00  0.0000E+00  0.0000E+00  0.0000E+00  0.0000E+00  0.0000E+00  0.0000E+00  0.0000E+00  0.0000E+00  0.0000E+00  0.0000E+00  0.0000E+00  0.0000E+00  0.0000E+00
     -3.081  0.0000E+00  0.0000E+00  0.0000E+00  0.0000E+00  0.0000E+00  0.0000E+00  0.0000E+00  0.0000E+00  0.0000E+00  0.0000E+00  0.0000E+00  0.0000E+00  0.0000E+00  0.0000E+00  0.0000E+00  0.0000E+00  0.0000E+00  0.0000E+00
     -3.009  0.0000E+00  0.0000E+00  0.0000E+00  0.0000E+00  0.0000E+00  0.0000E+00  0.0000E+00  0.0000E+00  0.0000E+00  0.0000E+00  0.0000E+00  0.0000E+00  0.0000E+00  0.0000E+00  0.0000E+00  0.0000E+00  0.0000E+00  0.0000E+00
     -2.938  0.0000E+00  0.0000E+00  0.0000E+00  0.0000E+00  0.0000E+00  0.0000E+00  0.0000E+00  0.0000E+00  0.0000E+00  0.0000E+00  0.0000E+00  0.0000E+00  0.0000E+00  0.0000E+00  0.0000E+00  0.0000E+00  0.0000E+00  0.0000E+00
     -2.867  0.0000E+00  0.0000E+00  0.0000E+00  0.0000E+00  0.0000E+00  0.0000E+00  0.0000E+00  0.0000E+00  0.0000E+00  0.0000E+00  0.0000E+00  0.0000E+00  0.0000E+00  0.0000E+00  0.0000E+00  0.0000E+00  0.0000E+00  0.0000E+00
     -2.796  0.0000E+00  0.0000E+00  0.0000E+00  0.0000E+00  0.0000E+00  0.0000E+00  0.0000E+00  0.0000E+00  0.0000E+00  0.0000E+00  0.0000E+00  0.0000E+00  0.0000E+00  0.0000E+00  0.0000E+00  0.0000E+00  0.0000E+00  0.0000E+00
     -2.725  0.0000E+00  0.0000E+00  0.0000E+00  0.0000E+00  0.0000E+00  0.0000E+00  0.0000E+00  0.0000E+00  0.0000E+00  0.0000E+00  0.0000E+00  0.0000E+00  0.0000E+00  0.0000E+00  0.0000E+00  0.0000E+00  0.0000E+00  0.0000E+00
     -2.653  0.4891E-06  0.4861E-06  0.8652E-09  0.8599E-09  0.3033E-10  0.3009E-10  0.8652E-09  0.8599E-09  0.4890E-17  0.3008E-16  0.1389E-14  0.1043E-14  0.1473E-10  0.1449E-10  0.1389E-14  0.1043E-14  0.4129E-11  0.4095E-11
     -2.582  0.2759E-05  0.2742E-05  0.6379E-08  0.6339E-08  0.7694E-08  0.7648E-08  0.6379E-08  0.6339E-08  0.2897E-10  0.2869E-10  0.2753E-10  0.2750E-10  0.7494E-10  0.7343E-10  0.2753E-10  0.2750E-10  0.2091E-10  0.2068E-10
     -2.511  0.1078E-04  0.1072E-04  0.2664E-07  0.2647E-07  0.2903E-07  0.2885E-07  0.2664E-07  0.2647E-07  0.1473E-09  0.1459E-09  0.1518E-09  0.1510E-09  0.2910E-09  0.2851E-09  0.1518E-09  0.1510E-09  0.7887E-10  0.7803E-10
     -2.440  0.4423E-04  0.4396E-04  0.1120E-06  0.1113E-06  0.1156E-06  0.1149E-06  0.1120E-06  0.1113E-06  0.5551E-09  0.5498E-09  0.5650E-09  0.5622E-09  0.1268E-08  0.1244E-08  0.5650E-09  0.5622E-09  0.4343E-09  0.4294E-09
     -2.369  0.1789E-03  0.1779E-03  0.4802E-06  0.4772E-06  0.4930E-06  0.4901E-06  0.4802E-06  0.4772E-06  0.2682E-08  0.2657E-08  0.2521E-08  0.2508E-08  0.5486E-08  0.5383E-08  0.2521E-08  0.2508E-08  0.2021E-08  0.1999E-08
     -2.297  0.6577E-03  0.6543E-03  0.1908E-05  0.1897E-05  0.2027E-05  0.2016E-05  0.1908E-05  0.1897E-05  0.1134E-07  0.1123E-07  0.1131E-07  0.1125E-07  0.2108E-07  0.2069E-07  0.1131E-07  0.1125E-07  0.7942E-08  0.7857E-08
     -2.226  0.1948E-02  0.1940E-02  0.6629E-05  0.6596E-05  0.7143E-05  0.7108E-05  0.6629E-05  0.6596E-05  0.4303E-07  0.4266E-07  0.4306E-07  0.4285E-07  0.6659E-07  0.6537E-07  0.4306E-07  0.4285E-07  0.2770E-07  0.2741E-07
     -2.155  0.4154E-02  0.4144E-02  0.1791E-04  0.1785E-04  0.1971E-04  0.1964E-04  0.1791E-04  0.1785E-04  0.1420E-06  0.1409E-06  0.1456E-06  0.1449E-06  0.1622E-06  0.1594E-06  0.1456E-06  0.1449E-06  0.8102E-07  0.8021E-07
     -2.084  0.6148E-02  0.6142E-02  0.3580E-04  0.3571E-04  0.3809E-04  0.3801E-04  0.3580E-04  0.3571E-04  0.3517E-06  0.3496E-06  0.3631E-06  0.3616E-06  0.3305E-06  0.3257E-06  0.3631E-06  0.3616E-06  0.2171E-06  0.2150E-06
     -2.013  0.7278E-02  0.7273E-02  0.6139E-04  0.6124E-04  0.5940E-04  0.5928E-04  0.6139E-04  0.6124E-04  0.7281E-06  0.7242E-06  0.7019E-06  0.6988E-06  0.7276E-06  0.7199E-06  0.7019E-06  0.6988E-06  0.5691E-06  0.5643E-06
     -1.941  0.9266E-02  0.9254E-02  0.1035E-03  0.1032E-03  0.1037E-03  0.1035E-03  0.1035E-03  0.1032E-03  0.1512E-05  0.1505E-05  0.1449E-05  0.1442E-05  0.1498E-05  0.1486E-05  0.1449E-05  0.1442E-05  0.1161E-05  0.1154E-05
     -1.870  0.1158E-01  0.1158E-01  0.1450E-03  0.1449E-03  0.1680E-03  0.1678E-03  0.1450E-03  0.1449E-03  0.2662E-05  0.2653E-05  0.2765E-05  0.2758E-05  0.2176E-05  0.2163E-05  0.2765E-05  0.2758E-05  0.1581E-05  0.1576E-05
     -1.799  0.1090E-01  0.1091E-01  0.1552E-03  0.1552E-03  0.1866E-03  0.1866E-03  0.1552E-03  0.1552E-03  0.3682E-05  0.3673E-05  0.3753E-05  0.3751E-05  0.2389E-05  0.2378E-05  0.3753E-05  0.3751E-05  0.1752E-05  0.1749E-05
     -1.728  0.1008E-01  0.1007E-01  0.1895E-03  0.1891E-03  0.1898E-03  0.1896E-03  0.1895E-03  0.1891E-03  0.5401E-05  0.5385E-05  0.5207E-05  0.5207E-05  0.3158E-05  0.3143E-05  0.5207E-05  0.5207E-05  0.2980E-05  0.2973E-05
     -1.657  0.1289E-01  0.1288E-01  0.2955E-03  0.2950E-03  0.2635E-03  0.2631E-03  0.2955E-03  0.2950E-03  0.8331E-05  0.8310E-05  0.8609E-05  0.8616E-05  0.5547E-05  0.5523E-05  0.8609E-05  0.8616E-05  0.6249E-05  0.6239E-05
     -1.585  0.1506E-01  0.1506E-01  0.3737E-03  0.3736E-03  0.3497E-03  0.3494E-03  0.3737E-03  0.3736E-03  0.1050E-04  0.1048E-04  0.1096E-04  0.1097E-04  0.9134E-05  0.9104E-05  0.1096E-04  0.1097E-04  0.9443E-05  0.9439E-05
     -1.514  0.1441E-01  0.1441E-01  0.3696E-03  0.3696E-03  0.4255E-03  0.4251E-03  0.3696E-03  0.3696E-03  0.1296E-04  0.1294E-04  0.1240E-04  0.1240E-04  0.1236E-04  0.1234E-04  0.1240E-04  0.1240E-04  0.9406E-05  0.9409E-05
     -1.443  0.1401E-01  0.1401E-01  0.3895E-03  0.3892E-03  0.4924E-03  0.4922E-03  0.3895E-03  0.3892E-03  0.1951E-04  0.1949E-04  0.1712E-04  0.1710E-04  0.1378E-04  0.1376E-04  0.1712E-04  0.1710E-04  0.8315E-05  0.8305E-05
     -1.372  0.1534E-01  0.1534E-01  0.4912E-03  0.4907E-03  0.5540E-03  0.5536E-03  0.4912E-03  0.4907E-03  0.2743E-04  0.2746E-04  0.2594E-04  0.2593E-04  0.1448E-04  0.1445E-04  0.2594E-04  0.2593E-04  0.1089E-04  0.1086E-04
     -1.301  0.1611E-01  0.1612E-01  0.5505E-03  0.5504E-03  0.6402E-03  0.6399E-03  0.5505E-03  0.5504E-03  0.2796E-04  0.2804E-04  0.3377E-04  0.3380E-04  0.1615E-04  0.1611E-04  0.3377E-04  0.3380E-04  0.1557E-04  0.1553E-04
     -1.229  0.1452E-01  0.1453E-01  0.5600E-03  0.5596E-03  0.5873E-03  0.5878E-03  0.5600E-03  0.5596E-03  0.2577E-04  0.2580E-04  0.3271E-04  0.3276E-04  0.1878E-04  0.1874E-04  0.3271E-04  0.3276E-04  0.2245E-04  0.2237E-04
     -1.158  0.1503E-01  0.1502E-01  0.7125E-03  0.7116E-03  0.5229E-03  0.5227E-03  0.7125E-03  0.7116E-03  0.3887E-04  0.3881E-04  0.3458E-04  0.3456E-04  0.2512E-04  0.2502E-04  0.3458E-04  0.3456E-04  0.3304E-04  0.3293E-04
     -1.087  0.1754E-01  0.1753E-01  0.8692E-03  0.8688E-03  0.7069E-03  0.7057E-03  0.8692E-03  0.8688E-03  0.5897E-04  0.5894E-04  0.4675E-04  0.4671E-04  0.3657E-04  0.3643E-04  0.4675E-04  0.4671E-04  0.3735E-04  0.3728E-04
     -1.016  0.1871E-01  0.1871E-01  0.8902E-03  0.8900E-03  0.1023E-02  0.1022E-02  0.8902E-03  0.8900E-03  0.6801E-04  0.6805E-04  0.6159E-04  0.6158E-04  0.4963E-04  0.4950E-04  0.6159E-04  0.6158E-04  0.3645E-04  0.3638E-04
     -0.945  0.1955E-01  0.1955E-01  0.9532E-03  0.9528E-03  0.1215E-02  0.1215E-02  0.9532E-03  0.9528E-03  0.7332E-04  0.7336E-04  0.7898E-04  0.7901E-04  0.5602E-04  0.5599E-04  0.7898E-04  0.7901E-04  0.4262E-04  0.4254E-04
     -0.873  0.1818E-01  0.1819E-01  0.9452E-03  0.9456E-03  0.1173E-02  0.1173E-02  0.9452E-03  0.9456E-03  0.7693E-04  0.7699E-04  0.8850E-04  0.8857E-04  0.5193E-04  0.5198E-04  0.8850E-04  0.8857E-04  0.4336E-04  0.4333E-04
     -0.802  0.1627E-01  0.1627E-01  0.8481E-03  0.8482E-03  0.1240E-02  0.1239E-02  0.8481E-03  0.8482E-03  0.8180E-04  0.8184E-04  0.9911E-04  0.9919E-04  0.5228E-04  0.5239E-04  0.9911E-04  0.9919E-04  0.3409E-04  0.3408E-04
     -0.731  0.1604E-01  0.1604E-01  0.9392E-03  0.9382E-03  0.1217E-02  0.1218E-02  0.9392E-03  0.9382E-03  0.1052E-03  0.1052E-03  0.1052E-03  0.1053E-03  0.5906E-04  0.5921E-04  0.1052E-03  0.1053E-03  0.4137E-04  0.4130E-04
     -0.660  0.1682E-01  0.1681E-01  0.1249E-02  0.1247E-02  0.9562E-03  0.9569E-03  0.1249E-02  0.1247E-02  0.1423E-03  0.1424E-03  0.1018E-03  0.1019E-03  0.6921E-04  0.6927E-04  0.1018E-03  0.1019E-03  0.7457E-04  0.7449E-04
     -0.589  0.1908E-01  0.1907E-01  0.1552E-02  0.1551E-02  0.1065E-02  0.1064E-02  0.1552E-02  0.1551E-02  0.1568E-03  0.1570E-03  0.1321E-03  0.1320E-03  0.8462E-04  0.8462E-04  0.1321E-03  0.1320E-03  0.1124E-03  0.1124E-03
     -0.517  0.2013E-01  0.2014E-01  0.1587E-02  0.1587E-02  0.1480E-02  0.1478E-02  0.1587E-02  0.1587E-02  0.1466E-03  0.1468E-03  0.1839E-03  0.1838E-03  0.9316E-04  0.9312E-04  0.1839E-03  0.1838E-03  0.1214E-03  0.1216E-03
     -0.446  0.2024E-01  0.2024E-01  0.1587E-02  0.1586E-02  0.1814E-02  0.1813E-02  0.1587E-02  0.1586E-02  0.1762E-03  0.1761E-03  0.2135E-03  0.2135E-03  0.1106E-03  0.1105E-03  0.2135E-03  0.2135E-03  0.1142E-03  0.1143E-03
     -0.375  0.2134E-01  0.2134E-01  0.1781E-02  0.1780E-02  0.2031E-02  0.2030E-02  0.1781E-02  0.1780E-02  0.2338E-03  0.2339E-03  0.2299E-03  0.2300E-03  0.1408E-03  0.1407E-03  0.2299E-03  0.2300E-03  0.1265E-03  0.1267E-03
     -0.304  0.1958E-01  0.1960E-01  0.1646E-02  0.1647E-02  0.2093E-02  0.2094E-02  0.1646E-02  0.1647E-02  0.2348E-03  0.2352E-03  0.2322E-03  0.2325E-03  0.1481E-03  0.1482E-03  0.2322E-03  0.2325E-03  0.1144E-03  0.1148E-03
     -0.233  0.1554E-01  0.1555E-01  0.1304E-02  0.1304E-02  0.1934E-02  0.1934E-02  0.1304E-02  0.1304E-02  0.2353E-03  0.2355E-03  0.2090E-03  0.2092E-03  0.1441E-03  0.1441E-03  0.2090E-03  0.2092E-03  0.7781E-04  0.7806E-04
     -0.161  0.1557E-01  0.1556E-01  0.1436E-02  0.1435E-02  0.2036E-02  0.2035E-02  0.1436E-02  0.1435E-02  0.3052E-03  0.3052E-03  0.2350E-03  0.2348E-03  0.1689E-03  0.1688E-03  0.2350E-03  0.2348E-03  0.8481E-04  0.8482E-04
     -0.090  0.1859E-01  0.1858E-01  0.1917E-02  0.1914E-02  0.2293E-02  0.2292E-02  0.1917E-02  0.1914E-02  0.3820E-03  0.3822E-03  0.3420E-03  0.3417E-03  0.1817E-03  0.1818E-03  0.3420E-03  0.3417E-03  0.1330E-03  0.1329E-03
     -0.019  0.2100E-01  0.2099E-01  0.2409E-02  0.2407E-02  0.2427E-02  0.2426E-02  0.2409E-02  0.2407E-02  0.4075E-03  0.4080E-03  0.4596E-03  0.4595E-03  0.1741E-03  0.1741E-03  0.4596E-03  0.4595E-03  0.2007E-03  0.2007E-03
      0.052  0.2066E-01  0.2066E-01  0.2595E-02  0.2595E-02  0.2559E-02  0.2558E-02  0.2595E-02  0.2595E-02  0.3748E-03  0.3753E-03  0.4904E-03  0.4907E-03  0.1920E-03  0.1920E-03  0.4904E-03  0.4907E-03  0.2537E-03  0.2538E-03
      0.123  0.1922E-01  0.1923E-01  0.2574E-02  0.2574E-02  0.2867E-02  0.2865E-02  0.2574E-02  0.2574E-02  0.3880E-03  0.3879E-03  0.5019E-03  0.5020E-03  0.2150E-03  0.2150E-03  0.5019E-03  0.5020E-03  0.2604E-03  0.2608E-03
      0.194  0.1770E-01  0.1771E-01  0.2588E-02  0.2588E-02  0.3068E-02  0.3068E-02  0.2588E-02  0.2588E-02  0.4649E-03  0.4646E-03  0.5032E-03  0.5036E-03  0.2140E-03  0.2141E-03  0.5032E-03  0.5036E-03  0.2497E-03  0.2501E-03
      0.266  0.1558E-01  0.1558E-01  0.2721E-02  0.2720E-02  0.2743E-02  0.2745E-02  0.2721E-02  0.2720E-02  0.5770E-03  0.5765E-03  0.4426E-03  0.4428E-03  0.2141E-03  0.2140E-03  0.4426E-03  0.4428E-03  0.2541E-03  0.2544E-03
      0.337  0.1503E-01  0.1504E-01  0.2783E-02  0.2783E-02  0.2793E-02  0.2791E-02  0.2783E-02  0.2783E-02  0.7256E-03  0.7252E-03  0.5035E-03  0.5030E-03  0.2220E-03  0.2220E-03  0.5035E-03  0.5030E-03  0.2236E-03  0.2241E-03