  16  16   1   0
  0.1344878E+02  0.3771650E-09  0.3771650E-09  0.1512656E-08  0.5000000E-15
  1.000000000000000E-004
  CAR 
 unknown system                          
     17.65152636     -3.35098804  301      9.56307086      1.00000000
     -3.351  0.0000E+00  0.0000E+00  0.0000E+00  0.0000E+00
     -3.281  0.0000E+00  0.0000E+00  0.0000E+00  0.0000E+00
     -3.211  0.0000E+00  0.0000E+00  0.0000E+00  0.0000E+00
     -3.141  0.0000E+00  0.0000E+00  0.0000E+00  0.0000E+00
     -3.071  0.0000E+00  0.0000E+00  0.0000E+00  0.0000E+00
     -3.001  0.0000E+00  0.0000E+00  0.0000E+00  0.0000E+00
     -2.931  0.0000E+00  0.0000E+00  0.0000E+00  0.0000E+00
     -2.861  0.2596E-05  0.2582E-05  0.1818E-06  0.1808E-06
     -2.791  0.2508E-04  0.2494E-04  0.1937E-05  0.1927E-05
     -2.721  0.1221E-03  0.1215E-03  0.1049E-04  0.1043E-04
     -2.651  0.4840E-03  0.4815E-03  0.4437E-04  0.4414E-04
     -2.581  0.1937E-02  0.1927E-02  0.1800E-03  0.1790E-03
     -2.511  0.7679E-02  0.7641E-02  0.7176E-03  0.7139E-03
     -2.441  0.2751E-01  0.2738E-01  0.2643E-02  0.2631E-02
     -2.371  0.8010E-01  0.7982E-01  0.8251E-02  0.8219E-02
     -2.301  0.1694E+00  0.1690E+00  0.2011E-01  0.2005E-01
     -2.231  0.2514E+00  0.2512E+00  0.3771E-01  0.3764E-01
     -2.161  0.3023E+00  0.3021E+00  0.5888E-01  0.5879E-01
     -2.091  0.3892E+00  0.3888E+00  0.8612E-01  0.8600E-01
     -2.021  0.4850E+00  0.4848E+00  0.1201E+00  0.1199E+00
     -1.951  0.4602E+00  0.4605E+00  0.1523E+00  0.1522E+00
     -1.881  0.4390E+00  0.4388E+00  0.1830E+00  0.1829E+00
     -1.811  0.5658E+00  0.5652E+00  0.2227E+00  0.2225E+00
     -1.741  0.6587E+00  0.6586E+00  0.2688E+00  0.2686E+00
     -1.671  0.6374E+00  0.6375E+00  0.3134E+00  0.3133E+00
     -1.601  0.6325E+00  0.6323E+00  0.3578E+00  0.3576E+00
     -1.531  0.7005E+00  0.7002E+00  0.4068E+00  0.4066E+00
     -1.461  0.7351E+00  0.7352E+00  0.4583E+00  0.4581E+00
     -1.391  0.6741E+00  0.6743E+00  0.5055E+00  0.5054E+00
     -1.321  0.7186E+00  0.7182E+00  0.5559E+00  0.5557E+00
     -1.251  0.8421E+00  0.8418E+00  0.6149E+00  0.6146E+00
     -1.181  0.9099E+00  0.9096E+00  0.6786E+00  0.6783E+00
     -1.111  0.9559E+00  0.9558E+00  0.7455E+00  0.7453E+00
     -1.041  0.8920E+00  0.8924E+00  0.8081E+00  0.8078E+00
     -0.971  0.8195E+00  0.8195E+00  0.8654E+00  0.8652E+00
     -0.901  0.8245E+00  0.8244E+00  0.9232E+00  0.9230E+00
     -0.831  0.8853E+00  0.8849E+00  0.9852E+00  0.9850E+00
     -0.761  0.1018E+01  0.1018E+01  0.1057E+01  0.1056E+01
     -0.691  0.1083E+01  0.1082E+01  0.1132E+01  0.1132E+01
     -0.621  0.1119E+01  0.1119E+01  0.1211E+01  0.1210E+01
     -0.551  0.1195E+01  0.1195E+01  0.1295E+01  0.1294E+01
     -0.481  0.1089E+01  0.1090E+01  0.1371E+01  0.1371E+01
     -0.411  0.9008E+00  0.9012E+00  0.1434E+01  0.1434E+01
     -0.341  0.9613E+00  0.9606E+00  0.1501E+01  0.1501E+01
     -0.271  0.1161E+01  0.1161E+01  0.1583E+01  0.1582E+01
     -0.201  0.1320E+01  0.1319E+01  0.1675E+01  0.1675E+01
     -0.131  0.1337E+01  0.1337E+01  0.1769E+01  0.1768E+01
     -0.061  0.1319E+01  0.1319E+01  0.1861E+01  0.1861E+01
      0.009  0.1282E+01  0.1282E+01  0.1951E+01  0.1951E+01
      0.079  0.1215E+01  0.1216E+01  0.2036E+01  0.2036E+01
      0.149  0.1219E+01  0.1219E+01  0.2121E+01  0.2121E+01
      0.219  0.1276E+01  0.1275E+01  0.2211E+01  0.2210E+01
      0.289  0.1435E+01  0.1434E+01  0.2311E+01  0.2311E+01
      0.359  0.1455E+01  0.1456E+01  0.2413E+01  0.2413E+01
      0.429  0.1293E+01  0.1294E+01  0.2504E+01  0.2504E+01
      0.499  0.1170E+01  0.1170E+01  0.2586E+01  0.2586E+01
      0.569  0.1130E+01  0.1130E+01  0.2665E+01  0.2665E+01
      0.639  0.1219E+01  0.1219E+01  0.2750E+01  0.2750E+01
      0.709  0.1402E+01  0.1401E+01  0.2849E+01  0.2848E+01
      0.780  0.1527E+01  0.1526E+01  0.2956E+01  0.2955E+01
      0.850  0.1592E+01  0.1592E+01  0.3067E+01  0.3067E+01
      0.920  0.1480E+01  0.1481E+01  0.3171E+01  0.3171E+01
      0.990  0.1352E+01  0.1352E+01  0.3266E+01  0.3265E+01
      1.060  0.1357E+01  0.1357E+01  0.3361E+01  0.3360E+01
      1.130  0.1414E+01  0.1414E+01  0.3460E+01  0.3459E+01
      1.200  0.1553E+01  0.1552E+01  0.3569E+01  0.3568E+01
      1.270  0.1622E+01  0.1622E+01  0.3682E+01  0.3682E+01
      1.340  0.1575E+01  0.1576E+01  0.3793E+01  0.3792E+01
      1.410  0.1480E+01  0.1480E+01  0.3896E+01  0.3896E+01
      1.480  0.1456E+01  0.1456E+01  0.3998E+01  0.3998E+01
      1.550  0.1560E+01  0.1560E+01  0.4108E+01  0.4107E+01
      1.620  0.1706E+01  0.1705E+01  0.4227E+01  0.4227E+01
      1.690  0.1917E+01  0.1917E+01  0.4361E+01  0.4361E+01
      1.760  0.1950E+01  0.1951E+01  0.4498E+01  0.4498E+01
      1.830  0.1749E+01  0.1750E+01  0.4620E+01  0.4620E+01
      1.900  0.1572E+01  0.1572E+01  0.4731E+01  0.4730E+01
      1.970  0.1617E+01  0.1617E+01  0.4844E+01  0.4843E+01
      2.040  0.1695E+01  0.1696E+01  0.4963E+01  0.4962E+01
      2.110  0.1702E+01  0.1701E+01  0.5082E+01  0.5082E+01
      2.180  0.1834E+01  0.1834E+01  0.5210E+01  0.5210E+01
      2.250  0.1844E+01  0.1845E+01  0.5340E+01  0.5339E+01
      2.320  0.1764E+01  0.1764E+01  0.5463E+01  0.5463E+01
      2.390  0.1903E+01  0.1903E+01  0.5597E+01  0.5596E+01
      2.460  0.2083E+01  0.2083E+01  0.5743E+01  0.5742E+01
      2.530  0.2054E+01  0.2055E+01  0.5886E+01  0.5886E+01
      2.600  0.1936E+01  0.1936E+01  0.6022E+01  0.6022E+01
      2.670  0.1872E+01  0.1872E+01  0.6153E+01  0.6153E+01
      2.740  0.1952E+01  0.1952E+01  0.6290E+01  0.6290E+01
      2.810  0.2090E+01  0.2090E+01  0.6436E+01  0.6436E+01
      2.880  0.2189E+01  0.2189E+01  0.6590E+01  0.6589E+01
      2.950  0.2312E+01  0.2312E+01  0.6752E+01  0.6751E+01
      3.020  0.2214E+01  0.2215E+01  0.6907E+01  0.6906E+01
      3.090  0.2016E+01  0.2016E+01  0.7048E+01  0.7048E+01
      3.160  0.2030E+01  0.2030E+01  0.7190E+01  0.7190E+01
      3.230  0.2030E+01  0.2031E+01  0.7333E+01  0.7332E+01
      3.300  0.2066E+01  0.2065E+01  0.7477E+01  0.7477E+01
      3.370  0.2408E+01  0.2407E+01  0.7646E+01  0.7646E+01
      3.440  0.2664E+01  0.2664E+01  0.7833E+01  0.7832E+01
      3.510  0.2745E+01  0.2745E+01  0.8025E+01  0.8024E+01
      3.580  0.2795E+01  0.2796E+01  0.8221E+01  0.8220E+01
      3.650  0.2685E+01  0.2685E+01  0.8409E+01  0.8408E+01
      3.720  0.2645E+01  0.2645E+01  0.8594E+01  0.8594E+01
      3.790  0.2697E+01  0.2697E+01  0.8783E+01  0.8783E+01
      3.860  0.2835E+01  0.2835E+01  0.8981E+01  0.8981E+01
      3.930  0.2776E+01  0.2777E+01  0.9176E+01  0.9176E+01
      4.000  0.2621E+01  0.2621E+01  0.9360E+01  0.9359E+01
      4.070  0.2670E+01  0.2670E+01  0.9547E+01  0.9546E+01
      4.140  0.3008E+01  0.3008E+01  0.9757E+01  0.9757E+01
      4.210  0.3427E+01  0.3428E+01  0.9997E+01  0.9997E+01
      4.280  0.3441E+01  0.3442E+01  0.1024E+02  0.1024E+02
      4.350  0.3527E+01  0.3527E+01  0.1049E+02  0.1049E+02
      4.420  0.3829E+01  0.3830E+01  0.1075E+02  0.1075E+02
      4.490  0.4077E+01  0.4079E+01  0.1104E+02  0.1104E+02
      4.560  0.4450E+01  0.4451E+01  0.1135E+02  0.1135E+02
      4.630  0.4809E+01  0.4810E+01  0.1169E+02  0.1169E+02
      4.700  0.5073E+01  0.5076E+01  0.1204E+02  0.1204E+02
      4.770  0.5848E+01  0.5852E+01  0.1245E+02  0.1245E+02
      4.840  0.6982E+01  0.6985E+01  0.1294E+02  0.1294E+02
      4.910  0.7911E+01  0.7916E+01  0.1350E+02  0.1350E+02
      4.980  0.8852E+01  0.8857E+01  0.1412E+02  0.1412E+02
      5.050  0.1030E+02  0.1031E+02  0.1484E+02  0.1484E+02
      5.120  0.1238E+02  0.1239E+02  0.1570E+02  0.1571E+02
      5.190  0.1490E+02  0.1491E+02  0.1675E+02  0.1675E+02
      5.260  0.1662E+02  0.1663E+02  0.1791E+02  0.1792E+02
      5.330  0.1692E+02  0.1692E+02  0.1910E+02  0.1910E+02
      5.400  0.1706E+02  0.1707E+02  0.2029E+02  0.2030E+02
      5.470  0.1847E+02  0.1848E+02  0.2159E+02  0.2159E+02
      5.540  0.2014E+02  0.2014E+02  0.2300E+02  0.2300E+02
      5.610  0.1893E+02  0.1892E+02  0.2432E+02  0.2433E+02
      5.680  0.1399E+02  0.1397E+02  0.2530E+02  0.2531E+02
      5.750  0.8466E+01  0.8452E+01  0.2590E+02  0.2590E+02
      5.820  0.7058E+01  0.7070E+01  0.2639E+02  0.2639E+02
      5.890  0.1028E+02  0.1030E+02  0.2711E+02  0.2712E+02
      5.960  0.1160E+02  0.1160E+02  0.2793E+02  0.2793E+02
      6.030  0.9533E+01  0.9517E+01  0.2859E+02  0.2860E+02
      6.100  0.7218E+01  0.7207E+01  0.2910E+02  0.2910E+02
      6.170  0.5766E+01  0.5760E+01  0.2950E+02  0.2950E+02
      6.240  0.5030E+01  0.5026E+01  0.2986E+02  0.2986E+02
      6.310  0.4668E+01  0.4665E+01  0.3018E+02  0.3018E+02
      6.380  0.4461E+01  0.4459E+01  0.3050E+02  0.3050E+02
      6.450  0.4213E+01  0.4211E+01  0.3079E+02  0.3079E+02
      6.520  0.4116E+01  0.4115E+01  0.3108E+02  0.3108E+02
      6.590  0.4265E+01  0.4264E+01  0.3138E+02  0.3138E+02
      6.660  0.4368E+01  0.4367E+01  0.3169E+02  0.3169E+02
      6.730  0.4107E+01  0.4105E+01  0.3197E+02  0.3197E+02
      6.800  0.3522E+01  0.3521E+01  0.3222E+02  0.3222E+02
      6.870  0.2895E+01  0.2893E+01  0.3242E+02  0.3242E+02
      6.940  0.2660E+01  0.2660E+01  0.3261E+02  0.3261E+02
      7.010  0.2919E+01  0.2919E+01  0.3281E+02  0.3281E+02
      7.080  0.3207E+01  0.3207E+01  0.3304E+02  0.3304E+02
      7.150  0.2919E+01  0.2918E+01  0.3324E+02  0.3324E+02
      7.220  0.2532E+01  0.2532E+01  0.3342E+02  0.3342E+02
      7.290  0.2537E+01  0.2536E+01  0.3360E+02  0.3360E+02
      7.360  0.2683E+01  0.2683E+01  0.3379E+02  0.3379E+02
      7.430  0.2723E+01  0.2723E+01  0.3398E+02  0.3398E+02
      7.500  0.2604E+01  0.2604E+01  0.3416E+02  0.3416E+02
      7.570  0.2420E+01  0.2420E+01  0.3433E+02  0.3433E+02
      7.640  0.2180E+01  0.2180E+01  0.3448E+02  0.3448E+02
      7.710  0.2438E+01  0.2438E+01  0.3465E+02  0.3465E+02
      7.780  0.3046E+01  0.3046E+01  0.3487E+02  0.3487E+02
      7.850  0.3312E+01  0.3311E+01  0.3510E+02  0.3510E+02
      7.920  0.3324E+01  0.3324E+01  0.3533E+02  0.3533E+02
      7.990  0.3288E+01  0.3288E+01  0.3556E+02  0.3556E+02
      8.060  0.3184E+01  0.3184E+01  0.3578E+02  0.3578E+02
      8.130  0.3126E+01  0.3126E+01  0.3600E+02  0.3600E+02
      8.200  0.3063E+01  0.3063E+01  0.3622E+02  0.3622E+02
      8.270  0.3040E+01  0.3040E+01  0.3643E+02  0.3643E+02
      8.340  0.2818E+01  0.2818E+01  0.3663E+02  0.3663E+02
      8.410  0.2684E+01  0.2684E+01  0.3682E+02  0.3682E+02
      8.480  0.2763E+01  0.2763E+01  0.3701E+02  0.3701E+02
      8.550  0.2667E+01  0.2667E+01  0.3720E+02  0.3720E+02
      8.620  0.2471E+01  0.2471E+01  0.3737E+02  0.3737E+02
      8.690  0.2567E+01  0.2566E+01  0.3755E+02  0.3755E+02
      8.760  0.2891E+01  0.2890E+01  0.3775E+02  0.3775E+02
      8.830  0.3070E+01  0.3070E+01  0.3797E+02  0.3797E+02
      8.900  0.2949E+01  0.2950E+01  0.3817E+02  0.3817E+02
      8.970  0.2812E+01  0.2812E+01  0.3837E+02  0.3837E+02
      9.040  0.2950E+01  0.2950E+01  0.3858E+02  0.3858E+02
      9.111  0.2917E+01  0.2917E+01  0.3878E+02  0.3878E+02
      9.181  0.2722E+01  0.2722E+01  0.3897E+02  0.3897E+02
      9.251  0.2506E+01  0.2506E+01  0.3915E+02  0.3915E+02
      9.321  0.2574E+01  0.2574E+01  0.3933E+02  0.3933E+02
      9.391  0.2799E+01  0.2798E+01  0.3952E+02  0.3952E+02
      9.461  0.2848E+01  0.2849E+01  0.3972E+02  0.3972E+02
      9.531  0.2725E+01  0.2725E+01  0.3991E+02  0.3991E+02
      9.601  0.2622E+01  0.2621E+01  0.4010E+02  0.4010E+02
      9.671  0.2629E+01  0.2629E+01  0.4028E+02  0.4028E+02
      9.741  0.2516E+01  0.2516E+01  0.4046E+02  0.4046E+02
      9.811  0.2683E+01  0.2682E+01  0.4065E+02  0.4065E+02
      9.881  0.3130E+01  0.3129E+01  0.4087E+02  0.4087E+02
      9.951  0.3169E+01  0.3169E+01  0.4109E+02  0.4109E+02
     10.021  0.2912E+01  0.2912E+01  0.4129E+02  0.4129E+02
     10.091  0.2806E+01  0.2806E+01  0.4149E+02  0.4149E+02
     10.161  0.2727E+01  0.2727E+01  0.4168E+02  0.4168E+02
     10.231  0.2496E+01  0.2496E+01  0.4185E+02  0.4185E+02
     10.301  0.2494E+01  0.2494E+01  0.4203E+02  0.4203E+02
     10.371  0.2865E+01  0.2865E+01  0.4223E+02  0.4223E+02
     10.441  0.3001E+01  0.3001E+01  0.4244E+02  0.4244E+02
     10.511  0.2582E+01  0.2583E+01  0.4262E+02  0.4262E+02
     10.581  0.2227E+01  0.2227E+01  0.4278E+02  0.4278E+02
     10.651  0.2290E+01  0.2289E+01  0.4294E+02  0.4294E+02
     10.721  0.2840E+01  0.2838E+01  0.4314E+02  0.4314E+02
     10.791  0.3272E+01  0.3272E+01  0.4337E+02  0.4337E+02
     10.861  0.3193E+01  0.3194E+01  0.4359E+02  0.4359E+02
     10.931  0.3078E+01  0.3078E+01  0.4381E+02  0.4380E+02
     11.001  0.3108E+01  0.3108E+01  0.4402E+02  0.4402E+02
     11.071  0.3089E+01  0.3089E+01  0.4424E+02  0.4424E+02
     11.141  0.2917E+01  0.2918E+01  0.4444E+02  0.4444E+02
     11.211  0.2515E+01  0.2516E+01  0.4462E+02  0.4462E+02
     11.281  0.2076E+01  0.2077E+01  0.4477E+02  0.4477E+02
     11.351  0.1923E+01  0.1923E+01  0.4490E+02  0.4490E+02
     11.421  0.2311E+01  0.2309E+01  0.4506E+02  0.4506E+02
     11.491  0.3191E+01  0.3188E+01  0.4529E+02  0.4529E+02
     11.561  0.3758E+01  0.3757E+01  0.4555E+02  0.4555E+02
     11.631  0.3677E+01  0.3677E+01  0.4581E+02  0.4581E+02
     11.701  0.3562E+01  0.3562E+01  0.4606E+02  0.4606E+02
     11.771  0.3644E+01  0.3644E+01  0.4631E+02  0.4631E+02
     11.841  0.3576E+01  0.3577E+01  0.4656E+02  0.4656E+02
     11.911  0.3296E+01  0.3297E+01  0.4679E+02  0.4679E+02
     11.981  0.2825E+01  0.2826E+01  0.4699E+02  0.4699E+02
     12.051  0.2493E+01  0.2494E+01  0.4717E+02  0.4716E+02
     12.121  0.2592E+01  0.2591E+01  0.4735E+02  0.4735E+02
     12.191  0.3117E+01  0.3116E+01  0.4757E+02  0.4756E+02
     12.261  0.3403E+01  0.3402E+01  0.4780E+02  0.4780E+02
     12.331  0.3342E+01  0.3342E+01  0.4804E+02  0.4804E+02
     12.401  0.3275E+01  0.3275E+01  0.4827E+02  0.4827E+02
     12.471  0.3168E+01  0.3168E+01  0.4849E+02  0.4849E+02
     12.541  0.3088E+01  0.3088E+01  0.4871E+02  0.4870E+02
     12.611  0.3262E+01  0.3262E+01  0.4893E+02  0.4893E+02
     12.681  0.3302E+01  0.3303E+01  0.4917E+02  0.4916E+02
     12.751  0.3247E+01  0.3247E+01  0.4939E+02  0.4939E+02
     12.821  0.3157E+01  0.3158E+01  0.4961E+02  0.4961E+02
     12.891  0.2910E+01  0.2911E+01  0.4982E+02  0.4982E+02
     12.961  0.2804E+01  0.2804E+01  0.5001E+02  0.5001E+02
     13.031  0.2705E+01  0.2705E+01  0.5020E+02  0.5020E+02
     13.101  0.2591E+01  0.2590E+01  0.5039E+02  0.5038E+02
     13.171  0.2726E+01  0.2726E+01  0.5058E+02  0.5058E+02
     13.241  0.2771E+01  0.2771E+01  0.5077E+02  0.5077E+02
     13.311  0.2853E+01  0.2852E+01  0.5097E+02  0.5097E+02
     13.381  0.3155E+01  0.3157E+01  0.5119E+02  0.5119E+02
     13.451  0.3257E+01  0.3264E+01  0.5142E+02  0.5142E+02
     13.521  0.2839E+01  0.2849E+01  0.5162E+02  0.5162E+02
     13.591  0.2859E+01  0.2874E+01  0.5182E+02  0.5182E+02
     13.661  0.3531E+01  0.3541E+01  0.5207E+02  0.5207E+02
     13.731  0.4028E+01  0.4020E+01  0.5235E+02  0.5235E+02
     13.801  0.3782E+01  0.3779E+01  0.5261E+02  0.5261E+02
     13.871  0.3194E+01  0.3210E+01  0.5284E+02  0.5284E+02
     13.941  0.2909E+01  0.2904E+01  0.5304E+02  0.5304E+02
     14.011  0.2865E+01  0.2870E+01  0.5324E+02  0.5324E+02
     14.081  0.2916E+01  0.3007E+01  0.5345E+02  0.5346E+02
     14.151  0.2981E+01  0.3130E+01  0.5365E+02  0.5367E+02
     14.221  0.2930E+01  0.3055E+01  0.5386E+02  0.5389E+02
     14.291  0.2800E+01  0.2883E+01  0.5406E+02  0.5409E+02
     14.361  0.2567E+01  0.2594E+01  0.5424E+02  0.5427E+02
     14.431  0.2326E+01  0.2278E+01  0.5440E+02  0.5443E+02
     14.501  0.2079E+01  0.1971E+01  0.5454E+02  0.5457E+02
     14.571  0.1811E+01  0.1652E+01  0.5467E+02  0.5469E+02
     14.641  0.1507E+01  0.1365E+01  0.5478E+02  0.5478E+02
     14.711  0.1547E+01  0.1452E+01  0.5489E+02  0.5488E+02
     14.781  0.2040E+01  0.2031E+01  0.5503E+02  0.5503E+02
     14.851  0.2081E+01  0.2116E+01  0.5517E+02  0.5517E+02
     14.921  0.1576E+01  0.1552E+01  0.5529E+02  0.5528E+02
     14.991  0.1101E+01  0.1055E+01  0.5536E+02  0.5536E+02
     15.061  0.7383E+00  0.7592E+00  0.5541E+02  0.5541E+02
     15.131  0.5972E+00  0.6266E+00  0.5546E+02  0.5545E+02
     15.201  0.6475E+00  0.6734E+00  0.5550E+02  0.5550E+02
     15.271  0.7393E+00  0.7371E+00  0.5555E+02  0.5555E+02
     15.341  0.7845E+00  0.7022E+00  0.5561E+02  0.5560E+02
     15.411  0.7159E+00  0.6407E+00  0.5566E+02  0.5565E+02
     15.481  0.5866E+00  0.6440E+00  0.5570E+02  0.5569E+02
     15.551  0.5557E+00  0.6267E+00  0.5574E+02  0.5574E+02
     15.621  0.5343E+00  0.5497E+00  0.5578E+02  0.5577E+02
     15.691  0.4091E+00  0.4135E+00  0.5580E+02  0.5580E+02
     15.761  0.3301E+00  0.3401E+00  0.5583E+02  0.5583E+02
     15.831  0.3072E+00  0.3155E+00  0.5585E+02  0.5585E+02
     15.901  0.2640E+00  0.2838E+00  0.5587E+02  0.5587E+02
     15.971  0.2949E+00  0.3334E+00  0.5589E+02  0.5589E+02
     16.041  0.3933E+00  0.4123E+00  0.5592E+02  0.5592E+02
     16.111  0.4181E+00  0.3725E+00  0.5595E+02  0.5595E+02
     16.181  0.2839E+00  0.2078E+00  0.5597E+02  0.5596E+02
     16.251  0.1151E+00  0.9299E-01  0.5597E+02  0.5597E+02
     16.321  0.3416E-01  0.5896E-01  0.5598E+02  0.5597E+02
     16.391  0.1198E-01  0.4254E-01  0.5598E+02  0.5598E+02
     16.461  0.1419E-01  0.4029E-01  0.5598E+02  0.5598E+02
     16.531  0.3420E-01  0.7764E-01  0.5598E+02  0.5598E+02
     16.601  0.5862E-01  0.1100E+00  0.5598E+02  0.5599E+02
     16.671  0.7744E-01  0.7631E-01  0.5599E+02  0.5600E+02
     16.741  0.8258E-01  0.2938E-01  0.5600E+02  0.5600E+02
     16.811  0.4684E-01  0.8361E-02  0.5600E+02  0.5600E+02
     16.881  0.1572E-01  0.2143E-02  0.5600E+02  0.5600E+02
     16.951  0.4231E-02  0.5334E-03  0.5600E+02  0.5600E+02
     17.021  0.1036E-02  0.0000E+00  0.5600E+02  0.5600E+02
     17.091  0.2570E-03  0.0000E+00  0.5600E+02  0.5600E+02
     17.161  0.0000E+00  0.0000E+00  0.5600E+02  0.5600E+02
     17.231  0.0000E+00  0.0000E+00  0.5600E+02  0.5600E+02
     17.301  0.0000E+00  0.0000E+00  0.5600E+02  0.5600E+02
     17.371  0.0000E+00  0.0000E+00  0.5600E+02  0.5600E+02
     17.442  0.0000E+00  0.0000E+00  0.5600E+02  0.5600E+02
     17.512  0.0000E+00  0.0000E+00  0.5600E+02  0.5600E+02
     17.582  0.0000E+00  0.0000E+00  0.5600E+02  0.5600E+02
     17.652  0.0000E+00  0.0000E+00  0.5600E+02  0.5600E+02
     17.65152636     -3.35098804  301      9.56307086      1.00000000
     -3.351  0.0000E+00  0.0000E+00  0.0000E+00  0.0000E+00  0.0000E+00  0.0000E+00  0.0000E+00  0.0000E+00  0.0000E+00  0.0000E+00  0.0000E+00  0.0000E+00  0.0000E+00  0.0000E+00  0.0000E+00  0.0000E+00  0.0000E+00  0.0000E+00
     -3.281  0.0000E+00  0.0000E+00  0.0000E+00  0.0000E+00  0.0000E+00  0.0000E+00  0.0000E+00  0.0000E+00  0.0000E+00  0.0000E+00  0.0000E+00  0.0000E+00  0.0000E+00  0.0000E+00  0.0000E+00  0.0000E+00  0.0000E+00  0.0000E+00
     -3.211  0.0000E+00  0.0000E+00  0.0000E+00  0.0000E+00  0.0000E+00  0.0000E+00  0.0000E+00  0.0000E+00  0.0000E+00  0.0000E+00  0.0000E+00  0.0000E+00  0.0000E+00  0.0000E+00  0.0000E+00  0.0000E+00  0.0000E+00  0.0000E+00
     -3.141  0.0000E+00  0.0000E+00  0.0000E+00  0.0000E+00  0.0000E+00  0.0000E+00  0.0000E+00  0.0000E+00  0.0000E+00  0.0000E+00  0.0000E+00  0.0000E+00  0.0000E+00  0.0000E+00  0.0000E+00  0.0000E+00  0.0000E+00  0.0000E+00
     -3.071  0.0000E+00  0.0000E+00  0.0000E+00  0.0000E+00  0.0000E+00  0.0000E+00  0.0000E+00  0.0000E+00  0.0000E+00  0.0000E+00  0.0000E+00  0.0000E+00  0.0000E+00  0.0000E+00  0.0000E+00  0.0000E+00  0.0000E+00  0.0000E+00
     -3.001  0.0000E+00  0.0000E+00  0.0000E+00  0.0000E+00  0.0000E+00  0.0000E+00  0.0000E+00  0.0000E+00  0.0000E+00  0.0000E+00  0.0000E+00  0.0000E+00  0.0000E+00  0.0000E+00  0.0000E+00  0.0000E+00  0.0000E+00  0.0000E+00
     -2.931  0.0000E+00  0.0000E+00  0.0000E+00  0.0000E+00  0.0000E+00  0.0000E+00  0.0000E+00  0.0000E+00  0.0000E+00  0.0000E+00  0.0000E+00  0.0000E+00  0.0000E+00  0.0000E+00  0.0000E+00  0.0000E+00  0.0000E+00  0.0000E+00
     -2.861  0.6347E-07  0.6315E-07  0.9756E-22  0.1029E-20  0.3649E-11  0.3625E-11  0.9756E-22  0.1029E-20  0.3948E-18  0.2652E-19  0.4976E-18  0.8144E-17  0.1078E-11  0.9635E-12  0.4976E-18  0.8144E-17  0.6490E-18  0.1270E-16
     -2.791  0.6093E-06  0.6061E-06  0.9749E-09  0.9696E-09  0.1002E-08  0.9967E-09  0.9749E-09  0.9696E-09  0.2556E-16  0.1217E-16  0.2794E-14  0.2270E-14  0.1627E-10  0.1540E-10  0.2794E-14  0.2270E-14  0.4600E-11  0.4524E-11
     -2.721  0.2958E-05  0.2942E-05  0.7113E-08  0.7074E-08  0.7649E-08  0.7609E-08  0.7113E-08  0.7074E-08  0.3303E-10  0.3291E-10  0.3154E-10  0.3159E-10  0.8278E-10  0.7868E-10  0.3154E-10  0.3159E-10  0.2290E-10  0.2251E-10
     -2.651  0.1172E-04  0.1166E-04  0.2903E-07  0.2888E-07  0.3177E-07  0.3160E-07  0.2903E-07  0.2888E-07  0.1651E-09  0.1643E-09  0.1709E-09  0.1703E-09  0.3157E-09  0.2995E-09  0.1709E-09  0.1703E-09  0.8393E-10  0.8250E-10
     -2.581  0.4690E-04  0.4666E-04  0.1193E-06  0.1187E-06  0.1231E-06  0.1225E-06  0.1193E-06  0.1187E-06  0.6045E-09  0.6016E-09  0.6179E-09  0.6164E-09  0.1349E-08  0.1284E-08  0.6179E-09  0.6164E-09  0.4595E-09  0.4544E-09
     -2.511  0.1858E-03  0.1849E-03  0.5029E-06  0.5002E-06  0.5304E-06  0.5277E-06  0.5029E-06  0.5002E-06  0.2884E-08  0.2869E-08  0.2823E-08  0.2815E-08  0.5851E-08  0.5591E-08  0.2823E-08  0.2815E-08  0.2119E-08  0.2094E-08
     -2.441  0.6649E-03  0.6620E-03  0.1943E-05  0.1933E-05  0.2055E-05  0.2045E-05  0.1943E-05  0.1933E-05  0.1194E-07  0.1188E-07  0.1184E-07  0.1180E-07  0.2138E-07  0.2048E-07  0.1184E-07  0.1180E-07  0.8086E-08  0.7996E-08
     -2.371  0.1932E-02  0.1926E-02  0.6601E-05  0.6572E-05  0.7112E-05  0.7082E-05  0.6601E-05  0.6572E-05  0.4447E-07  0.4426E-07  0.4422E-07  0.4410E-07  0.6666E-07  0.6418E-07  0.4422E-07  0.4410E-07  0.2764E-07  0.2737E-07
     -2.301  0.4071E-02  0.4063E-02  0.1755E-04  0.1749E-04  0.1927E-04  0.1921E-04  0.1755E-04  0.1749E-04  0.1421E-06  0.1415E-06  0.1460E-06  0.1457E-06  0.1607E-06  0.1558E-06  0.1460E-06  0.1457E-06  0.8024E-07  0.7970E-07
     -2.231  0.6009E-02  0.6004E-02  0.3496E-04  0.3488E-04  0.3705E-04  0.3698E-04  0.3496E-04  0.3488E-04  0.3504E-06  0.3491E-06  0.3604E-06  0.3594E-06  0.3291E-06  0.3214E-06  0.3604E-06  0.3594E-06  0.2147E-06  0.2140E-06
     -2.161  0.7160E-02  0.7155E-02  0.6003E-04  0.5990E-04  0.5828E-04  0.5818E-04  0.6003E-04  0.5990E-04  0.7265E-06  0.7237E-06  0.6997E-06  0.6974E-06  0.7179E-06  0.7063E-06  0.6997E-06  0.6974E-06  0.5521E-06  0.5509E-06
     -2.091  0.9121E-02  0.9111E-02  0.1005E-03  0.1004E-03  0.1017E-03  0.1014E-03  0.1005E-03  0.1004E-03  0.1498E-05  0.1493E-05  0.1442E-05  0.1437E-05  0.1450E-05  0.1433E-05  0.1442E-05  0.1437E-05  0.1108E-05  0.1105E-05
     -2.021  0.1128E-01  0.1128E-01  0.1396E-03  0.1395E-03  0.1620E-03  0.1618E-03  0.1396E-03  0.1395E-03  0.2609E-05  0.2604E-05  0.2707E-05  0.2703E-05  0.2081E-05  0.2062E-05  0.2707E-05  0.2703E-05  0.1502E-05  0.1500E-05
     -1.951  0.1062E-01  0.1062E-01  0.1506E-03  0.1505E-03  0.1794E-03  0.1795E-03  0.1506E-03  0.1505E-03  0.3627E-05  0.3626E-05  0.3678E-05  0.3680E-05  0.2311E-05  0.2294E-05  0.3678E-05  0.3680E-05  0.1706E-05  0.1704E-05
     -1.881  0.9991E-02  0.9987E-02  0.1868E-03  0.1865E-03  0.1861E-03  0.1859E-03  0.1868E-03  0.1865E-03  0.5352E-05  0.5358E-05  0.5184E-05  0.5190E-05  0.3118E-05  0.3093E-05  0.5184E-05  0.5190E-05  0.2952E-05  0.2950E-05
     -1.811  0.1272E-01  0.1271E-01  0.2881E-03  0.2877E-03  0.2579E-03  0.2575E-03  0.2881E-03  0.2877E-03  0.8168E-05  0.8190E-05  0.8451E-05  0.8469E-05  0.5458E-05  0.5417E-05  0.8451E-05  0.8469E-05  0.6058E-05  0.6060E-05
     -1.741  0.1468E-01  0.1468E-01  0.3594E-03  0.3593E-03  0.3402E-03  0.3399E-03  0.3594E-03  0.3593E-03  0.1027E-04  0.1030E-04  0.1067E-04  0.1069E-04  0.8873E-05  0.8818E-05  0.1067E-04  0.1069E-04  0.8948E-05  0.8960E-05
     -1.671  0.1406E-01  0.1406E-01  0.3564E-03  0.3565E-03  0.4138E-03  0.4135E-03  0.3564E-03  0.3565E-03  0.1288E-04  0.1289E-04  0.1225E-04  0.1226E-04  0.1185E-04  0.1180E-04  0.1225E-04  0.1226E-04  0.8845E-05  0.8855E-05
     -1.601  0.1377E-01  0.1377E-01  0.3809E-03  0.3806E-03  0.4775E-03  0.4773E-03  0.3809E-03  0.3806E-03  0.1940E-04  0.1938E-04  0.1707E-04  0.1706E-04  0.1314E-04  0.1310E-04  0.1707E-04  0.1706E-04  0.8021E-05  0.8012E-05
     -1.531  0.1508E-01  0.1507E-01  0.4779E-03  0.4775E-03  0.5393E-03  0.5390E-03  0.4779E-03  0.4775E-03  0.2678E-04  0.2675E-04  0.2567E-04  0.2565E-04  0.1387E-04  0.1383E-04  0.2567E-04  0.2565E-04  0.1062E-04  0.1059E-04
     -1.461  0.1566E-01  0.1567E-01  0.5301E-03  0.5301E-03  0.6161E-03  0.6159E-03  0.5301E-03  0.5301E-03  0.2698E-04  0.2698E-04  0.3276E-04  0.3278E-04  0.1551E-04  0.1549E-04  0.3276E-04  0.3278E-04  0.1511E-04  0.1508E-04
     -1.391  0.1419E-01  0.1419E-01  0.5480E-03  0.5476E-03  0.5601E-03  0.5605E-03  0.5480E-03  0.5476E-03  0.2574E-04  0.2573E-04  0.3171E-04  0.3174E-04  0.1821E-04  0.1819E-04  0.3171E-04  0.3174E-04  0.2192E-04  0.2189E-04
     -1.321  0.1490E-01  0.1489E-01  0.7003E-03  0.6995E-03  0.5155E-03  0.5152E-03  0.7003E-03  0.6995E-03  0.3930E-04  0.3925E-04  0.3441E-04  0.3440E-04  0.2464E-04  0.2458E-04  0.3441E-04  0.3440E-04  0.3169E-04  0.3168E-04
     -1.251  0.1724E-01  0.1723E-01  0.8393E-03  0.8390E-03  0.7059E-03  0.7048E-03  0.8393E-03  0.8390E-03  0.5804E-04  0.5804E-04  0.4641E-04  0.4639E-04  0.3572E-04  0.3563E-04  0.4641E-04  0.4639E-04  0.3518E-04  0.3523E-04
     -1.181  0.1836E-01  0.1836E-01  0.8617E-03  0.8615E-03  0.1006E-02  0.1005E-02  0.8617E-03  0.8615E-03  0.6643E-04  0.6649E-04  0.6112E-04  0.6110E-04  0.4778E-04  0.4769E-04  0.6112E-04  0.6110E-04  0.3483E-04  0.3486E-04
     -1.111  0.1905E-01  0.1905E-01  0.9222E-03  0.9219E-03  0.1170E-02  0.1170E-02  0.9222E-03  0.9219E-03  0.7166E-04  0.7175E-04  0.7754E-04  0.7754E-04  0.5290E-04  0.5288E-04  0.7754E-04  0.7754E-04  0.4067E-04  0.4067E-04
     -1.041  0.1757E-01  0.1758E-01  0.9026E-03  0.9029E-03  0.1133E-02  0.1133E-02  0.9026E-03  0.9029E-03  0.7502E-04  0.7515E-04  0.8653E-04  0.8658E-04  0.4912E-04  0.4918E-04  0.8653E-04  0.8658E-04  0.4027E-04  0.4031E-04
     -0.971  0.1588E-01  0.1588E-01  0.8214E-03  0.8214E-03  0.1204E-02  0.1203E-02  0.8214E-03  0.8214E-03  0.8109E-04  0.8121E-04  0.9719E-04  0.9729E-04  0.5026E-04  0.5038E-04  0.9719E-04  0.9729E-04  0.3241E-04  0.3246E-04
     -0.901  0.1573E-01  0.1573E-01  0.9317E-03  0.9308E-03  0.1150E-02  0.1151E-02  0.9317E-03  0.9308E-03  0.1055E-03  0.1056E-03  0.1016E-03  0.1018E-03  0.5679E-04  0.5693E-04  0.1016E-03  0.1018E-03  0.4178E-04  0.4179E-04
     -0.831  0.1663E-01  0.1663E-01  0.1238E-02  0.1236E-02  0.9220E-03  0.9224E-03  0.1238E-02  0.1236E-02  0.1405E-03  0.1406E-03  0.1007E-03  0.1008E-03  0.6719E-04  0.6728E-04  0.1007E-03  0.1008E-03  0.7428E-04  0.7432E-04
     -0.761  0.1881E-01  0.1880E-01  0.1508E-02  0.1508E-02  0.1070E-02  0.1069E-02  0.1508E-02  0.1508E-02  0.1514E-03  0.1517E-03  0.1335E-03  0.1336E-03  0.8145E-04  0.8151E-04  0.1335E-03  0.1336E-03  0.1079E-03  0.1081E-03
     -0.691  0.1964E-01  0.1964E-01  0.1525E-02  0.1525E-02  0.1469E-02  0.1468E-02  0.1525E-02  0.1525E-02  0.1439E-03  0.1441E-03  0.1819E-03  0.1821E-03  0.8964E-04  0.8968E-04  0.1819E-03  0.1821E-03  0.1135E-03  0.1138E-03
     -0.621  0.1988E-01  0.1988E-01  0.1551E-02  0.1550E-02  0.1781E-02  0.1780E-02  0.1551E-02  0.1550E-02  0.1779E-03  0.1780E-03  0.2087E-03  0.2089E-03  0.1082E-03  0.1081E-03  0.2087E-03  0.2089E-03  0.1088E-03  0.1090E-03
     -0.551  0.2079E-01  0.2079E-01  0.1721E-02  0.1721E-02  0.1981E-02  0.1980E-02  0.1721E-02  0.1721E-02  0.2294E-03  0.2297E-03  0.2243E-03  0.2245E-03  0.1350E-03  0.1349E-03  0.2243E-03  0.2245E-03  0.1198E-03  0.1200E-03
     -0.481  0.1861E-01  0.1862E-01  0.1544E-02  0.1546E-02  0.2009E-02  0.2009E-02  0.1544E-02  0.1546E-02  0.2264E-03  0.2268E-03  0.2232E-03  0.2236E-03  0.1387E-03  0.1388E-03  0.2232E-03  0.2236E-03  0.1037E-03  0.1040E-03
     -0.411  0.1500E-01  0.1501E-01  0.1258E-02  0.1258E-02  0.1872E-02  0.1872E-02  0.1258E-02  0.1258E-02  0.2350E-03  0.2352E-03  0.2038E-03  0.2040E-03  0.1378E-03  0.1379E-03  0.2038E-03  0.2040E-03  0.7272E-04  0.7288E-04
     -0.341  0.1554E-01  0.1553E-01  0.1442E-02  0.1441E-02  0.2008E-02  0.2007E-02  0.1442E-02  0.1441E-02  0.3069E-03  0.3069E-03  0.2394E-03  0.2393E-03  0.1621E-03  0.1622E-03  0.2394E-03  0.2393E-03  0.8518E-04  0.8518E-04
     -0.271  0.1846E-01  0.1845E-01  0.1919E-02  0.1917E-02  0.2230E-02  0.2230E-02  0.1919E-02  0.1917E-02  0.3768E-03  0.3770E-03  0.3475E-03  0.3472E-03  0.1701E-03  0.1703E-03  0.3475E-03  0.3472E-03  0.1334E-03  0.1334E-03
     -0.201  0.2052E-01  0.2052E-01  0.2371E-02  0.2370E-02  0.2364E-02  0.2363E-02  0.2371E-02  0.2370E-02  0.3934E-03  0.3938E-03  0.4532E-03  0.4531E-03  0.1661E-03  0.1662E-03  0.4532E-03  0.4531E-03  0.1973E-03  0.1973E-03
     -0.131  0.1991E-01  0.1992E-01  0.2513E-02  0.2513E-02  0.2525E-02  0.2524E-02  0.2513E-02  0.2513E-02  0.3637E-03  0.3640E-03  0.4763E-03  0.4766E-03  0.1855E-03  0.1855E-03  0.4763E-03  0.4766E-03  0.2409E-03  0.2411E-03
     -0.061  0.1854E-01  0.1854E-01  0.2494E-02  0.2494E-02  0.2858E-02  0.2857E-02  0.2494E-02  0.2494E-02  0.3882E-03  0.3882E-03  0.4920E-03  0.4922E-03  0.2037E-03  0.2038E-03  0.4920E-03  0.4922E-03  0.2422E-03  0.2426E-03
      0.009  0.1688E-01  0.1689E-01  0.2525E-02  0.2524E-02  0.2962E-02  0.2963E-02  0.2525E-02  0.2524E-02  0.4658E-03  0.4657E-03  0.4818E-03  0.4823E-03  0.2008E-03  0.2009E-03  0.4818E-03  0.4823E-03  0.2344E-03  0.2347E-03
      0.079  0.1499E-01  0.1499E-01  0.2664E-02  0.2663E-02  0.2628E-02  0.2629E-02  0.2664E-02  0.2663E-02  0.5827E-03  0.5824E-03  0.4332E-03  0.4334E-03  0.2035E-03  0.2036E-03  0.4332E-03  0.4334E-03  0.2360E-03  0.2363E-03
      0.149  0.1452E-01  0.1452E-01  0.2673E-02  0.2673E-02  0.2774E-02  0.2772E-02  0.2673E-02  0.2673E-02  0.7179E-03  0.7178E-03  0.5151E-03  0.5148E-03  0.2061E-03  0.2063E-03  0.5151E-03  0.5148E-03  0.1992E-03  0.1996E-03