  16  16   1   0
  0.1914876E+02  0.4243107E-09  0.4243107E-09  0.1701738E-08  0.5000000E-15
  1.000000000000000E-004
  CAR 
 unknown system                          
     11.82034788     -4.41765829  301      5.79290641      1.00000000
     -4.418  0.0000E+00  0.0000E+00  0.0000E+00  0.0000E+00
     -4.364  0.0000E+00  0.0000E+00  0.0000E+00  0.0000E+00
     -4.309  0.0000E+00  0.0000E+00  0.0000E+00  0.0000E+00
     -4.255  0.0000E+00  0.0000E+00  0.0000E+00  0.0000E+00
     -4.201  0.0000E+00  0.0000E+00  0.0000E+00  0.0000E+00
     -4.147  0.0000E+00  0.0000E+00  0.0000E+00  0.0000E+00
     -4.093  0.9361E-05  0.9312E-05  0.5067E-06  0.5040E-06
     -4.039  0.7798E-04  0.7757E-04  0.4727E-05  0.4702E-05
     -3.985  0.2970E-03  0.2955E-03  0.2080E-04  0.2070E-04
     -3.931  0.8577E-03  0.8532E-03  0.6723E-04  0.6688E-04
     -3.876  0.2505E-02  0.2492E-02  0.2028E-03  0.2018E-03
     -3.822  0.7318E-02  0.7281E-02  0.5989E-03  0.5958E-03
     -3.768  0.2046E-01  0.2036E-01  0.1707E-02  0.1698E-02
     -3.714  0.5312E-01  0.5289E-01  0.4582E-02  0.4561E-02
     -3.660  0.1190E+00  0.1186E+00  0.1102E-01  0.1098E-01
     -3.606  0.2151E+00  0.2146E+00  0.2267E-01  0.2260E-01
     -3.552  0.3106E+00  0.3102E+00  0.3948E-01  0.3939E-01
     -3.498  0.3918E+00  0.3914E+00  0.6069E-01  0.6058E-01
     -3.443  0.4878E+00  0.4873E+00  0.8710E-01  0.8695E-01
     -3.389  0.5754E+00  0.5751E+00  0.1182E+00  0.1181E+00
     -3.335  0.5905E+00  0.5905E+00  0.1502E+00  0.1500E+00
     -3.281  0.6025E+00  0.6022E+00  0.1828E+00  0.1826E+00
     -3.227  0.7002E+00  0.6996E+00  0.2207E+00  0.2205E+00
     -3.173  0.7954E+00  0.7951E+00  0.2638E+00  0.2636E+00
     -3.119  0.8146E+00  0.8146E+00  0.3079E+00  0.3077E+00
     -3.064  0.8228E+00  0.8227E+00  0.3524E+00  0.3522E+00
     -3.010  0.8720E+00  0.8717E+00  0.3997E+00  0.3994E+00
     -2.956  0.9107E+00  0.9107E+00  0.4490E+00  0.4488E+00
     -2.902  0.8970E+00  0.8971E+00  0.4976E+00  0.4973E+00
     -2.848  0.9287E+00  0.9283E+00  0.5478E+00  0.5476E+00
     -2.794  0.1035E+01  0.1035E+01  0.6039E+00  0.6036E+00
     -2.740  0.1126E+01  0.1125E+01  0.6649E+00  0.6646E+00
     -2.686  0.1173E+01  0.1173E+01  0.7284E+00  0.7281E+00
     -2.631  0.1149E+01  0.1149E+01  0.7906E+00  0.7903E+00
     -2.577  0.1086E+01  0.1086E+01  0.8494E+00  0.8491E+00
     -2.523  0.1073E+01  0.1072E+01  0.9075E+00  0.9072E+00
     -2.469  0.1127E+01  0.1127E+01  0.9685E+00  0.9682E+00
     -2.415  0.1244E+01  0.1243E+01  0.1036E+01  0.1036E+01
     -2.361  0.1349E+01  0.1348E+01  0.1109E+01  0.1109E+01
     -2.307  0.1411E+01  0.1411E+01  0.1185E+01  0.1185E+01
     -2.253  0.1464E+01  0.1464E+01  0.1265E+01  0.1264E+01
     -2.198  0.1421E+01  0.1422E+01  0.1342E+01  0.1341E+01
     -2.144  0.1281E+01  0.1281E+01  0.1411E+01  0.1411E+01
     -2.090  0.1254E+01  0.1254E+01  0.1479E+01  0.1479E+01
     -2.036  0.1401E+01  0.1400E+01  0.1555E+01  0.1554E+01
     -1.982  0.1602E+01  0.1601E+01  0.1641E+01  0.1641E+01
     -1.928  0.1733E+01  0.1732E+01  0.1735E+01  0.1735E+01
     -1.874  0.1749E+01  0.1749E+01  0.1830E+01  0.1829E+01
     -1.820  0.1710E+01  0.1710E+01  0.1923E+01  0.1922E+01
     -1.765  0.1634E+01  0.1634E+01  0.2011E+01  0.2011E+01
     -1.711  0.1581E+01  0.1581E+01  0.2097E+01  0.2096E+01
     -1.657  0.1603E+01  0.1603E+01  0.2184E+01  0.2183E+01
     -1.603  0.1698E+01  0.1698E+01  0.2275E+01  0.2275E+01
     -1.549  0.1756E+01  0.1756E+01  0.2371E+01  0.2370E+01
     -1.495  0.1672E+01  0.1673E+01  0.2461E+01  0.2461E+01
     -1.441  0.1491E+01  0.1492E+01  0.2542E+01  0.2542E+01
     -1.387  0.1353E+01  0.1353E+01  0.2615E+01  0.2615E+01
     -1.332  0.1356E+01  0.1355E+01  0.2689E+01  0.2688E+01
     -1.278  0.1507E+01  0.1506E+01  0.2770E+01  0.2770E+01
     -1.224  0.1682E+01  0.1682E+01  0.2861E+01  0.2861E+01
     -1.170  0.1792E+01  0.1792E+01  0.2958E+01  0.2958E+01
     -1.116  0.1819E+01  0.1819E+01  0.3057E+01  0.3057E+01
     -1.062  0.1701E+01  0.1702E+01  0.3149E+01  0.3149E+01
     -1.008  0.1537E+01  0.1538E+01  0.3232E+01  0.3232E+01
     -0.954  0.1549E+01  0.1549E+01  0.3316E+01  0.3316E+01
     -0.899  0.1736E+01  0.1735E+01  0.3410E+01  0.3410E+01
     -0.845  0.1871E+01  0.1870E+01  0.3512E+01  0.3511E+01
     -0.791  0.1920E+01  0.1920E+01  0.3616E+01  0.3615E+01
     -0.737  0.1912E+01  0.1913E+01  0.3719E+01  0.3719E+01
     -0.683  0.1806E+01  0.1807E+01  0.3817E+01  0.3817E+01
     -0.629  0.1708E+01  0.1709E+01  0.3909E+01  0.3909E+01
     -0.575  0.1751E+01  0.1751E+01  0.4004E+01  0.4004E+01
     -0.521  0.1966E+01  0.1964E+01  0.4111E+01  0.4110E+01
     -0.466  0.2248E+01  0.2246E+01  0.4232E+01  0.4232E+01
     -0.412  0.2409E+01  0.2409E+01  0.4363E+01  0.4362E+01
     -0.358  0.2369E+01  0.2369E+01  0.4491E+01  0.4491E+01
     -0.304  0.2194E+01  0.2195E+01  0.4610E+01  0.4610E+01
     -0.250  0.2051E+01  0.2051E+01  0.4721E+01  0.4721E+01
     -0.196  0.2019E+01  0.2019E+01  0.4830E+01  0.4830E+01
     -0.142  0.2040E+01  0.2040E+01  0.4941E+01  0.4940E+01
     -0.088  0.2076E+01  0.2076E+01  0.5053E+01  0.5053E+01
     -0.033  0.2112E+01  0.2112E+01  0.5168E+01  0.5167E+01
      0.021  0.2071E+01  0.2071E+01  0.5280E+01  0.5280E+01
      0.075  0.2028E+01  0.2028E+01  0.5390E+01  0.5389E+01
      0.129  0.2156E+01  0.2155E+01  0.5507E+01  0.5506E+01
      0.183  0.2396E+01  0.2395E+01  0.5636E+01  0.5636E+01
      0.237  0.2523E+01  0.2523E+01  0.5773E+01  0.5772E+01
      0.291  0.2433E+01  0.2434E+01  0.5905E+01  0.5904E+01
      0.345  0.2286E+01  0.2286E+01  0.6029E+01  0.6028E+01
      0.400  0.2184E+01  0.2184E+01  0.6147E+01  0.6146E+01
      0.454  0.2152E+01  0.2152E+01  0.6263E+01  0.6263E+01
      0.508  0.2253E+01  0.2253E+01  0.6385E+01  0.6385E+01
      0.562  0.2490E+01  0.2490E+01  0.6520E+01  0.6520E+01
      0.616  0.2749E+01  0.2749E+01  0.6669E+01  0.6669E+01
      0.670  0.2770E+01  0.2771E+01  0.6819E+01  0.6819E+01
      0.724  0.2521E+01  0.2522E+01  0.6956E+01  0.6955E+01
      0.779  0.2219E+01  0.2220E+01  0.7076E+01  0.7075E+01
      0.833  0.2230E+01  0.2229E+01  0.7197E+01  0.7196E+01
      0.887  0.2554E+01  0.2553E+01  0.7335E+01  0.7334E+01
      0.941  0.2818E+01  0.2818E+01  0.7487E+01  0.7487E+01
      0.995  0.2949E+01  0.2949E+01  0.7647E+01  0.7647E+01
      1.049  0.3030E+01  0.3031E+01  0.7811E+01  0.7811E+01
      1.103  0.2977E+01  0.2977E+01  0.7973E+01  0.7972E+01
      1.157  0.2862E+01  0.2862E+01  0.8128E+01  0.8127E+01
      1.212  0.2827E+01  0.2827E+01  0.8281E+01  0.8280E+01
      1.266  0.2809E+01  0.2809E+01  0.8433E+01  0.8432E+01
      1.320  0.2862E+01  0.2863E+01  0.8588E+01  0.8587E+01
      1.374  0.3033E+01  0.3033E+01  0.8752E+01  0.8752E+01
      1.428  0.3216E+01  0.3216E+01  0.8926E+01  0.8926E+01
      1.482  0.3286E+01  0.3286E+01  0.9104E+01  0.9104E+01
      1.536  0.3176E+01  0.3177E+01  0.9276E+01  0.9276E+01
      1.590  0.3033E+01  0.3034E+01  0.9440E+01  0.9440E+01
      1.645  0.2960E+01  0.2961E+01  0.9601E+01  0.9601E+01
      1.699  0.2973E+01  0.2974E+01  0.9762E+01  0.9762E+01
      1.753  0.2957E+01  0.2958E+01  0.9922E+01  0.9922E+01
      1.807  0.2861E+01  0.2861E+01  0.1008E+02  0.1008E+02
      1.861  0.2882E+01  0.2882E+01  0.1023E+02  0.1023E+02
      1.915  0.3170E+01  0.3170E+01  0.1040E+02  0.1040E+02
      1.969  0.3679E+01  0.3680E+01  0.1060E+02  0.1060E+02
      2.023  0.4021E+01  0.4023E+01  0.1082E+02  0.1082E+02
      2.078  0.4038E+01  0.4041E+01  0.1104E+02  0.1104E+02
      2.132  0.4013E+01  0.4015E+01  0.1126E+02  0.1126E+02
      2.186  0.4094E+01  0.4095E+01  0.1148E+02  0.1148E+02
      2.240  0.4289E+01  0.4291E+01  0.1171E+02  0.1171E+02
      2.294  0.4620E+01  0.4623E+01  0.1196E+02  0.1196E+02
      2.348  0.5115E+01  0.5119E+01  0.1224E+02  0.1224E+02
      2.402  0.5732E+01  0.5738E+01  0.1255E+02  0.1255E+02
      2.456  0.6431E+01  0.6437E+01  0.1290E+02  0.1290E+02
      2.511  0.7109E+01  0.7117E+01  0.1328E+02  0.1328E+02
      2.565  0.7896E+01  0.7908E+01  0.1371E+02  0.1371E+02
      2.619  0.9424E+01  0.9446E+01  0.1422E+02  0.1422E+02
      2.673  0.1246E+02  0.1250E+02  0.1489E+02  0.1490E+02
      2.727  0.1690E+02  0.1696E+02  0.1581E+02  0.1582E+02
      2.781  0.2134E+02  0.2140E+02  0.1696E+02  0.1698E+02
      2.835  0.2436E+02  0.2441E+02  0.1828E+02  0.1830E+02
      2.889  0.2616E+02  0.2621E+02  0.1970E+02  0.1972E+02
      2.944  0.2797E+02  0.2800E+02  0.2121E+02  0.2123E+02
      2.998  0.2924E+02  0.2925E+02  0.2280E+02  0.2282E+02
      3.052  0.2737E+02  0.2731E+02  0.2428E+02  0.2429E+02
      3.106  0.2218E+02  0.2209E+02  0.2548E+02  0.2549E+02
      3.160  0.1834E+02  0.1829E+02  0.2647E+02  0.2648E+02
      3.214  0.1777E+02  0.1775E+02  0.2744E+02  0.2744E+02
      3.268  0.1648E+02  0.1646E+02  0.2833E+02  0.2833E+02
      3.322  0.1330E+02  0.1327E+02  0.2905E+02  0.2905E+02
      3.377  0.1039E+02  0.1037E+02  0.2961E+02  0.2962E+02
      3.431  0.8655E+01  0.8643E+01  0.3008E+02  0.3009E+02
      3.485  0.7662E+01  0.7655E+01  0.3050E+02  0.3050E+02
      3.539  0.6954E+01  0.6949E+01  0.3087E+02  0.3088E+02
      3.593  0.6567E+01  0.6564E+01  0.3123E+02  0.3123E+02
      3.647  0.6364E+01  0.6359E+01  0.3158E+02  0.3158E+02
      3.701  0.5865E+01  0.5857E+01  0.3189E+02  0.3190E+02
      3.755  0.5125E+01  0.5117E+01  0.3217E+02  0.3217E+02
      3.810  0.4606E+01  0.4602E+01  0.3242E+02  0.3242E+02
      3.864  0.4450E+01  0.4448E+01  0.3266E+02  0.3266E+02
      3.918  0.4396E+01  0.4396E+01  0.3290E+02  0.3290E+02
      3.972  0.4361E+01  0.4361E+01  0.3314E+02  0.3314E+02
      4.026  0.4475E+01  0.4475E+01  0.3338E+02  0.3338E+02
      4.080  0.4681E+01  0.4682E+01  0.3363E+02  0.3363E+02
      4.134  0.4800E+01  0.4799E+01  0.3389E+02  0.3389E+02
      4.188  0.4815E+01  0.4814E+01  0.3415E+02  0.3415E+02
      4.243  0.4745E+01  0.4743E+01  0.3441E+02  0.3441E+02
      4.297  0.4562E+01  0.4560E+01  0.3466E+02  0.3466E+02
      4.351  0.4332E+01  0.4330E+01  0.3489E+02  0.3489E+02
      4.405  0.4232E+01  0.4230E+01  0.3512E+02  0.3512E+02
      4.459  0.4292E+01  0.4291E+01  0.3535E+02  0.3535E+02
      4.513  0.4370E+01  0.4369E+01  0.3559E+02  0.3559E+02
      4.567  0.4366E+01  0.4365E+01  0.3583E+02  0.3583E+02
      4.621  0.4230E+01  0.4229E+01  0.3606E+02  0.3606E+02
      4.676  0.3925E+01  0.3923E+01  0.3627E+02  0.3627E+02
      4.730  0.3534E+01  0.3533E+01  0.3646E+02  0.3646E+02
      4.784  0.3330E+01  0.3329E+01  0.3664E+02  0.3664E+02
      4.838  0.3420E+01  0.3419E+01  0.3683E+02  0.3683E+02
      4.892  0.3499E+01  0.3499E+01  0.3702E+02  0.3701E+02
      4.946  0.3388E+01  0.3387E+01  0.3720E+02  0.3720E+02
      5.000  0.3251E+01  0.3250E+01  0.3737E+02  0.3737E+02
      5.055  0.3247E+01  0.3247E+01  0.3755E+02  0.3755E+02
      5.109  0.3275E+01  0.3275E+01  0.3773E+02  0.3773E+02
      5.163  0.3265E+01  0.3265E+01  0.3790E+02  0.3790E+02
      5.217  0.3330E+01  0.3329E+01  0.3809E+02  0.3808E+02
      5.271  0.3446E+01  0.3446E+01  0.3827E+02  0.3827E+02
      5.325  0.3563E+01  0.3563E+01  0.3846E+02  0.3846E+02
      5.379  0.3495E+01  0.3495E+01  0.3865E+02  0.3865E+02
      5.433  0.3243E+01  0.3243E+01  0.3883E+02  0.3883E+02
      5.488  0.3055E+01  0.3055E+01  0.3900E+02  0.3899E+02
      5.542  0.3009E+01  0.3009E+01  0.3916E+02  0.3916E+02
      5.596  0.3088E+01  0.3087E+01  0.3933E+02  0.3933E+02
      5.650  0.3268E+01  0.3267E+01  0.3950E+02  0.3950E+02
      5.704  0.3475E+01  0.3474E+01  0.3969E+02  0.3969E+02
      5.758  0.3531E+01  0.3531E+01  0.3988E+02  0.3988E+02
      5.812  0.3367E+01  0.3367E+01  0.4006E+02  0.4006E+02
      5.866  0.3204E+01  0.3204E+01  0.4024E+02  0.4024E+02
      5.921  0.3273E+01  0.3272E+01  0.4041E+02  0.4041E+02
      5.975  0.3429E+01  0.3429E+01  0.4060E+02  0.4060E+02
      6.029  0.3393E+01  0.3393E+01  0.4078E+02  0.4078E+02
      6.083  0.3247E+01  0.3247E+01  0.4096E+02  0.4096E+02
      6.137  0.3206E+01  0.3206E+01  0.4113E+02  0.4113E+02
      6.191  0.3291E+01  0.3291E+01  0.4131E+02  0.4131E+02
      6.245  0.3402E+01  0.3401E+01  0.4150E+02  0.4150E+02
      6.299  0.3507E+01  0.3506E+01  0.4169E+02  0.4169E+02
      6.354  0.3691E+01  0.3689E+01  0.4189E+02  0.4189E+02
      6.408  0.3960E+01  0.3959E+01  0.4210E+02  0.4210E+02
      6.462  0.4099E+01  0.4099E+01  0.4232E+02  0.4232E+02
      6.516  0.4022E+01  0.4022E+01  0.4254E+02  0.4254E+02
      6.570  0.4004E+01  0.4004E+01  0.4276E+02  0.4276E+02
      6.624  0.4161E+01  0.4160E+01  0.4298E+02  0.4298E+02
      6.678  0.4307E+01  0.4306E+01  0.4322E+02  0.4321E+02
      6.732  0.4246E+01  0.4247E+01  0.4345E+02  0.4344E+02
      6.787  0.3985E+01  0.3986E+01  0.4366E+02  0.4366E+02
      6.841  0.3662E+01  0.3663E+01  0.4386E+02  0.4386E+02
      6.895  0.3369E+01  0.3369E+01  0.4404E+02  0.4404E+02
      6.949  0.3107E+01  0.3107E+01  0.4421E+02  0.4421E+02
      7.003  0.3048E+01  0.3047E+01  0.4438E+02  0.4438E+02
      7.057  0.3253E+01  0.3252E+01  0.4455E+02  0.4455E+02
      7.111  0.3369E+01  0.3369E+01  0.4473E+02  0.4473E+02
      7.165  0.3265E+01  0.3265E+01  0.4491E+02  0.4491E+02
      7.220  0.3227E+01  0.3227E+01  0.4509E+02  0.4509E+02
      7.274  0.3456E+01  0.3455E+01  0.4527E+02  0.4527E+02
      7.328  0.3948E+01  0.3946E+01  0.4549E+02  0.4549E+02
      7.382  0.4342E+01  0.4342E+01  0.4572E+02  0.4572E+02
      7.436  0.4312E+01  0.4312E+01  0.4596E+02  0.4595E+02
      7.490  0.4002E+01  0.4003E+01  0.4617E+02  0.4617E+02
      7.544  0.3822E+01  0.3821E+01  0.4638E+02  0.4638E+02
      7.598  0.3911E+01  0.3911E+01  0.4659E+02  0.4659E+02
      7.653  0.4042E+01  0.4042E+01  0.4681E+02  0.4681E+02
      7.707  0.4110E+01  0.4110E+01  0.4703E+02  0.4703E+02
      7.761  0.4069E+01  0.4070E+01  0.4725E+02  0.4725E+02
      7.815  0.3874E+01  0.3875E+01  0.4746E+02  0.4746E+02
      7.869  0.3783E+01  0.3782E+01  0.4767E+02  0.4767E+02
      7.923  0.3772E+01  0.3772E+01  0.4787E+02  0.4787E+02
      7.977  0.3614E+01  0.3615E+01  0.4807E+02  0.4807E+02
      8.031  0.3429E+01  0.3430E+01  0.4825E+02  0.4825E+02
      8.086  0.3424E+01  0.3424E+01  0.4844E+02  0.4844E+02
      8.140  0.3483E+01  0.3483E+01  0.4863E+02  0.4863E+02
      8.194  0.3619E+01  0.3618E+01  0.4882E+02  0.4882E+02
      8.248  0.3972E+01  0.3970E+01  0.4904E+02  0.4904E+02
      8.302  0.4393E+01  0.4392E+01  0.4928E+02  0.4928E+02
      8.356  0.4636E+01  0.4636E+01  0.4953E+02  0.4953E+02
      8.410  0.4593E+01  0.4594E+01  0.4978E+02  0.4978E+02
      8.464  0.4246E+01  0.4247E+01  0.5001E+02  0.5001E+02
      8.519  0.3783E+01  0.3784E+01  0.5021E+02  0.5021E+02
      8.573  0.3467E+01  0.3467E+01  0.5040E+02  0.5040E+02
      8.627  0.3379E+01  0.3378E+01  0.5058E+02  0.5058E+02
      8.681  0.3391E+01  0.3390E+01  0.5077E+02  0.5076E+02
      8.735  0.3382E+01  0.3382E+01  0.5095E+02  0.5095E+02
      8.789  0.3434E+01  0.3434E+01  0.5113E+02  0.5113E+02
      8.843  0.3756E+01  0.3754E+01  0.5134E+02  0.5134E+02
      8.898  0.4283E+01  0.4283E+01  0.5157E+02  0.5157E+02
      8.952  0.4716E+01  0.4724E+01  0.5183E+02  0.5183E+02
      9.006  0.4816E+01  0.4833E+01  0.5209E+02  0.5209E+02
      9.060  0.4597E+01  0.4605E+01  0.5234E+02  0.5234E+02
      9.114  0.4146E+01  0.4122E+01  0.5256E+02  0.5256E+02
      9.168  0.3855E+01  0.3804E+01  0.5277E+02  0.5277E+02
      9.222  0.4157E+01  0.4089E+01  0.5299E+02  0.5299E+02
      9.276  0.4608E+01  0.4527E+01  0.5324E+02  0.5323E+02
      9.331  0.4539E+01  0.4449E+01  0.5349E+02  0.5347E+02
      9.385  0.3980E+01  0.3896E+01  0.5370E+02  0.5368E+02
      9.439  0.3432E+01  0.3383E+01  0.5389E+02  0.5387E+02
      9.493  0.3204E+01  0.3227E+01  0.5406E+02  0.5404E+02
      9.547  0.3081E+01  0.3179E+01  0.5423E+02  0.5421E+02
      9.601  0.2810E+01  0.2915E+01  0.5438E+02  0.5437E+02
      9.655  0.2493E+01  0.2560E+01  0.5452E+02  0.5451E+02
      9.709  0.2299E+01  0.2332E+01  0.5464E+02  0.5464E+02
      9.764  0.2202E+01  0.2226E+01  0.5476E+02  0.5476E+02
      9.818  0.2091E+01  0.2145E+01  0.5488E+02  0.5487E+02
      9.872  0.1975E+01  0.2033E+01  0.5498E+02  0.5498E+02
      9.926  0.1933E+01  0.1939E+01  0.5509E+02  0.5509E+02
      9.980  0.1912E+01  0.1861E+01  0.5519E+02  0.5519E+02
     10.034  0.1877E+01  0.1841E+01  0.5529E+02  0.5529E+02
     10.088  0.1680E+01  0.1690E+01  0.5538E+02  0.5538E+02
     10.142  0.1253E+01  0.1260E+01  0.5545E+02  0.5545E+02
     10.197  0.9445E+00  0.9076E+00  0.5550E+02  0.5550E+02
     10.251  0.8750E+00  0.8269E+00  0.5555E+02  0.5554E+02
     10.305  0.8652E+00  0.8774E+00  0.5560E+02  0.5559E+02
     10.359  0.8629E+00  0.8999E+00  0.5564E+02  0.5564E+02
     10.413  0.8361E+00  0.8609E+00  0.5569E+02  0.5569E+02
     10.467  0.7177E+00  0.7397E+00  0.5573E+02  0.5573E+02
     10.521  0.5403E+00  0.5568E+00  0.5576E+02  0.5576E+02
     10.575  0.3986E+00  0.4118E+00  0.5578E+02  0.5578E+02
     10.630  0.3458E+00  0.3636E+00  0.5580E+02  0.5580E+02
     10.684  0.3611E+00  0.3857E+00  0.5582E+02  0.5582E+02
     10.738  0.4459E+00  0.4635E+00  0.5584E+02  0.5585E+02
     10.792  0.5252E+00  0.5112E+00  0.5587E+02  0.5587E+02
     10.846  0.5011E+00  0.4337E+00  0.5590E+02  0.5590E+02
     10.900  0.4207E+00  0.3121E+00  0.5592E+02  0.5591E+02
     10.954  0.3854E+00  0.3016E+00  0.5594E+02  0.5593E+02
     11.008  0.3565E+00  0.3846E+00  0.5596E+02  0.5595E+02
     11.063  0.3049E+00  0.4013E+00  0.5598E+02  0.5597E+02
     11.117  0.2233E+00  0.2839E+00  0.5599E+02  0.5599E+02
     11.171  0.1239E+00  0.1418E+00  0.5600E+02  0.5600E+02
     11.225  0.5297E-01  0.5651E-01  0.5600E+02  0.5600E+02
     11.279  0.1978E-01  0.2041E-01  0.5600E+02  0.5600E+02
     11.333  0.6788E-02  0.7072E-02  0.5600E+02  0.5600E+02
     11.387  0.2135E-02  0.2251E-02  0.5600E+02  0.5600E+02
     11.441  0.6559E-03  0.4929E-03  0.5600E+02  0.5600E+02
     11.496  0.0000E+00  0.0000E+00  0.5600E+02  0.5600E+02
     11.550  0.0000E+00  0.0000E+00  0.5600E+02  0.5600E+02
     11.604  0.0000E+00  0.0000E+00  0.5600E+02  0.5600E+02
     11.658  0.0000E+00  0.0000E+00  0.5600E+02  0.5600E+02
     11.712  0.0000E+00  0.0000E+00  0.5600E+02  0.5600E+02
     11.766  0.0000E+00  0.0000E+00  0.5600E+02  0.5600E+02
     11.820  0.0000E+00  0.0000E+00  0.5600E+02  0.5600E+02
     11.82034788     -4.41765829  301      5.79290641      1.00000000
     -4.418  0.0000E+00  0.0000E+00  0.0000E+00  0.0000E+00  0.0000E+00  0.0000E+00  0.0000E+00  0.0000E+00  0.0000E+00  0.0000E+00  0.0000E+00  0.0000E+00  0.0000E+00  0.0000E+00  0.0000E+00  0.0000E+00  0.0000E+00  0.0000E+00
     -4.364  0.0000E+00  0.0000E+00  0.0000E+00  0.0000E+00  0.0000E+00  0.0000E+00  0.0000E+00  0.0000E+00  0.0000E+00  0.0000E+00  0.0000E+00  0.0000E+00  0.0000E+00  0.0000E+00  0.0000E+00  0.0000E+00  0.0000E+00  0.0000E+00
     -4.309  0.0000E+00  0.0000E+00  0.0000E+00  0.0000E+00  0.0000E+00  0.0000E+00  0.0000E+00  0.0000E+00  0.0000E+00  0.0000E+00  0.0000E+00  0.0000E+00  0.0000E+00  0.0000E+00  0.0000E+00  0.0000E+00  0.0000E+00  0.0000E+00
     -4.255  0.0000E+00  0.0000E+00  0.0000E+00  0.0000E+00  0.0000E+00  0.0000E+00  0.0000E+00  0.0000E+00  0.0000E+00  0.0000E+00  0.0000E+00  0.0000E+00  0.0000E+00  0.0000E+00  0.0000E+00  0.0000E+00  0.0000E+00  0.0000E+00
     -4.201  0.0000E+00  0.0000E+00  0.0000E+00  0.0000E+00  0.0000E+00  0.0000E+00  0.0000E+00  0.0000E+00  0.0000E+00  0.0000E+00  0.0000E+00  0.0000E+00  0.0000E+00  0.0000E+00  0.0000E+00  0.0000E+00  0.0000E+00  0.0000E+00
     -4.147  0.0000E+00  0.0000E+00  0.0000E+00  0.0000E+00  0.0000E+00  0.0000E+00  0.0000E+00  0.0000E+00  0.0000E+00  0.0000E+00  0.0000E+00  0.0000E+00  0.0000E+00  0.0000E+00  0.0000E+00  0.0000E+00  0.0000E+00  0.0000E+00
     -4.093  0.1429E-06  0.1422E-06  0.1323E-20  0.4389E-20  0.4789E-11  0.4760E-11  0.1323E-20  0.4389E-20  0.1253E-17  0.2056E-17  0.1313E-16  0.1041E-15  0.2360E-11  0.2464E-11  0.1313E-16  0.1041E-15  0.2269E-14  0.7870E-16
     -4.039  0.1182E-05  0.1176E-05  0.1736E-08  0.1727E-08  0.1856E-08  0.1847E-08  0.1736E-08  0.1727E-08  0.2255E-15  0.7861E-17  0.4772E-13  0.9828E-13  0.2953E-10  0.3006E-10  0.4772E-13  0.9828E-13  0.7027E-11  0.6698E-11
     -3.985  0.4482E-05  0.4459E-05  0.1054E-07  0.1049E-07  0.1179E-07  0.1173E-07  0.1054E-07  0.1049E-07  0.6363E-10  0.6436E-10  0.6175E-10  0.6332E-10  0.1174E-09  0.1177E-09  0.6175E-10  0.6332E-10  0.2717E-10  0.2696E-10
     -3.931  0.1293E-04  0.1286E-04  0.3456E-07  0.3438E-07  0.3568E-07  0.3550E-07  0.3456E-07  0.3438E-07  0.2469E-09  0.2464E-09  0.2626E-09  0.2637E-09  0.3593E-09  0.3606E-09  0.2626E-09  0.2637E-09  0.1218E-09  0.1201E-09
     -3.876  0.3773E-04  0.3754E-04  0.1065E-06  0.1060E-06  0.1062E-06  0.1057E-06  0.1065E-06  0.1060E-06  0.8550E-09  0.8527E-09  0.7558E-09  0.7603E-09  0.1220E-08  0.1222E-08  0.7558E-09  0.7603E-09  0.4798E-09  0.4742E-09
     -3.822  0.1102E-03  0.1096E-03  0.3168E-06  0.3152E-06  0.3378E-06  0.3361E-06  0.3168E-06  0.3152E-06  0.2749E-08  0.2741E-08  0.2681E-08  0.2691E-08  0.3640E-08  0.3647E-08  0.2681E-08  0.2691E-08  0.1378E-08  0.1363E-08
     -3.768  0.3080E-03  0.3065E-03  0.8996E-06  0.8952E-06  0.9709E-06  0.9661E-06  0.8996E-06  0.8952E-06  0.7658E-08  0.7639E-08  0.7778E-08  0.7815E-08  0.1021E-07  0.1022E-07  0.7778E-08  0.7815E-08  0.3852E-08  0.3809E-08
     -3.714  0.7987E-03  0.7954E-03  0.2499E-05  0.2488E-05  0.2683E-05  0.2670E-05  0.2499E-05  0.2488E-05  0.2255E-07  0.2250E-07  0.2229E-07  0.2239E-07  0.2755E-07  0.2756E-07  0.2229E-07  0.2239E-07  0.1093E-07  0.1082E-07
     -3.660  0.1786E-02  0.1780E-02  0.6345E-05  0.6320E-05  0.6846E-05  0.6818E-05  0.6345E-05  0.6320E-05  0.6261E-07  0.6244E-07  0.6238E-07  0.6260E-07  0.6701E-07  0.6691E-07  0.6238E-07  0.6260E-07  0.2948E-07  0.2926E-07
     -3.606  0.3217E-02  0.3210E-02  0.1380E-04  0.1376E-04  0.1483E-04  0.1479E-04  0.1380E-04  0.1376E-04  0.1538E-06  0.1532E-06  0.1539E-06  0.1543E-06  0.1426E-06  0.1421E-06  0.1539E-06  0.1543E-06  0.7360E-07  0.7320E-07
     -3.552  0.4618E-02  0.4612E-02  0.2548E-04  0.2542E-04  0.2669E-04  0.2663E-04  0.2548E-04  0.2542E-04  0.3325E-06  0.3309E-06  0.3307E-06  0.3308E-06  0.2774E-06  0.2761E-06  0.3307E-06  0.3308E-06  0.1697E-06  0.1689E-06
     -3.498  0.5776E-02  0.5771E-02  0.4235E-04  0.4225E-04  0.4320E-04  0.4310E-04  0.4235E-04  0.4225E-04  0.6546E-06  0.6511E-06  0.6372E-06  0.6364E-06  0.5235E-06  0.5212E-06  0.6372E-06  0.6364E-06  0.3562E-06  0.3546E-06
     -3.443  0.7125E-02  0.7119E-02  0.6535E-04  0.6524E-04  0.6907E-04  0.6892E-04  0.6535E-04  0.6524E-04  0.1208E-05  0.1203E-05  0.1187E-05  0.1186E-05  0.8936E-06  0.8914E-06  0.1187E-05  0.1186E-05  0.6254E-06  0.6233E-06
     -3.389  0.8336E-02  0.8334E-02  0.8801E-04  0.8793E-04  0.9974E-04  0.9961E-04  0.8801E-04  0.8793E-04  0.1972E-05  0.1968E-05  0.1998E-05  0.2000E-05  0.1258E-05  0.1257E-05  0.1998E-05  0.2000E-05  0.8844E-06  0.8830E-06
     -3.335  0.8480E-02  0.8482E-02  0.1046E-03  0.1045E-03  0.1183E-03  0.1183E-03  0.1046E-03  0.1045E-03  0.2865E-05  0.2867E-05  0.2872E-05  0.2879E-05  0.1574E-05  0.1575E-05  0.2872E-05  0.2879E-05  0.1189E-05  0.1187E-05
     -3.281  0.8544E-02  0.8541E-02  0.1317E-03  0.1316E-03  0.1345E-03  0.1344E-03  0.1317E-03  0.1316E-03  0.4157E-05  0.4168E-05  0.4105E-05  0.4114E-05  0.2187E-05  0.2185E-05  0.4105E-05  0.4114E-05  0.1928E-05  0.1923E-05
     -3.227  0.9807E-02  0.9800E-02  0.1806E-03  0.1804E-03  0.1724E-03  0.1722E-03  0.1806E-03  0.1804E-03  0.5961E-05  0.5977E-05  0.6019E-05  0.6030E-05  0.3433E-05  0.3429E-05  0.6019E-05  0.6030E-05  0.3284E-05  0.3280E-05
     -3.173  0.1103E-01  0.1103E-01  0.2228E-03  0.2227E-03  0.2220E-03  0.2218E-03  0.2228E-03  0.2227E-03  0.7811E-05  0.7827E-05  0.7854E-05  0.7866E-05  0.5120E-05  0.5121E-05  0.7854E-05  0.7866E-05  0.4593E-05  0.4597E-05
     -3.119  0.1118E-01  0.1118E-01  0.2399E-03  0.2398E-03  0.2697E-03  0.2695E-03  0.2399E-03  0.2398E-03  0.1013E-04  0.1014E-04  0.9702E-05  0.9709E-05  0.6643E-05  0.6653E-05  0.9702E-05  0.9709E-05  0.5037E-05  0.5048E-05
     -3.064  0.1115E-01  0.1115E-01  0.2604E-03  0.2602E-03  0.3127E-03  0.3124E-03  0.2604E-03  0.2602E-03  0.1403E-04  0.1402E-04  0.1299E-04  0.1298E-04  0.7601E-05  0.7614E-05  0.1299E-04  0.1298E-04  0.5175E-05  0.5179E-05
     -3.010  0.1167E-01  0.1167E-01  0.3049E-03  0.3046E-03  0.3527E-03  0.3524E-03  0.3049E-03  0.3046E-03  0.1839E-04  0.1838E-04  0.1801E-04  0.1799E-04  0.8356E-05  0.8362E-05  0.1801E-04  0.1799E-04  0.6353E-05  0.6338E-05
     -2.956  0.1205E-01  0.1205E-01  0.3458E-03  0.3455E-03  0.3886E-03  0.3884E-03  0.3458E-03  0.3455E-03  0.2045E-04  0.2044E-04  0.2261E-04  0.2259E-04  0.9456E-05  0.9446E-05  0.2261E-04  0.2259E-04  0.8731E-05  0.8696E-05
     -2.902  0.1172E-01  0.1172E-01  0.3787E-03  0.3784E-03  0.3881E-03  0.3881E-03  0.3787E-03  0.3784E-03  0.2197E-04  0.2194E-04  0.2448E-04  0.2447E-04  0.1129E-04  0.1125E-04  0.2448E-04  0.2447E-04  0.1220E-04  0.1214E-04
     -2.848  0.1194E-01  0.1194E-01  0.4477E-03  0.4472E-03  0.3889E-03  0.3886E-03  0.4477E-03  0.4472E-03  0.2890E-04  0.2882E-04  0.2709E-04  0.2707E-04  0.1475E-04  0.1467E-04  0.2709E-04  0.2707E-04  0.1648E-04  0.1640E-04
     -2.794  0.1311E-01  0.1311E-01  0.5268E-03  0.5264E-03  0.4754E-03  0.4746E-03  0.5268E-03  0.5264E-03  0.3980E-04  0.3970E-04  0.3408E-04  0.3404E-04  0.2001E-04  0.1991E-04  0.3408E-04  0.3404E-04  0.1922E-04  0.1915E-04
     -2.740  0.1405E-01  0.1405E-01  0.5672E-03  0.5669E-03  0.6243E-03  0.6234E-03  0.5672E-03  0.5669E-03  0.4794E-04  0.4786E-04  0.4378E-04  0.4373E-04  0.2552E-04  0.2542E-04  0.4378E-04  0.4373E-04  0.2012E-04  0.2005E-04
     -2.686  0.1445E-01  0.1445E-01  0.5956E-03  0.5954E-03  0.7365E-03  0.7359E-03  0.5956E-03  0.5954E-03  0.5311E-04  0.5306E-04  0.5433E-04  0.5429E-04  0.2879E-04  0.2871E-04  0.5433E-04  0.5429E-04  0.2176E-04  0.2171E-04
     -2.631  0.1396E-01  0.1397E-01  0.6035E-03  0.6035E-03  0.7670E-03  0.7667E-03  0.6035E-03  0.6035E-03  0.5728E-04  0.5725E-04  0.6295E-04  0.6292E-04  0.2902E-04  0.2897E-04  0.6295E-04  0.6292E-04  0.2261E-04  0.2258E-04
     -2.577  0.1299E-01  0.1300E-01  0.5881E-03  0.5881E-03  0.7847E-03  0.7845E-03  0.5881E-03  0.5881E-03  0.6304E-04  0.6299E-04  0.7025E-04  0.7021E-04  0.2949E-04  0.2945E-04  0.7025E-04  0.7021E-04  0.2162E-04  0.2161E-04
     -2.523  0.1260E-01  0.1260E-01  0.6337E-03  0.6332E-03  0.7751E-03  0.7753E-03  0.6337E-03  0.6332E-03  0.7625E-04  0.7616E-04  0.7594E-04  0.7592E-04  0.3246E-04  0.3240E-04  0.7594E-04  0.7592E-04  0.2518E-04  0.2514E-04
     -2.469  0.1299E-01  0.1299E-01  0.7761E-03  0.7752E-03  0.7092E-03  0.7094E-03  0.7761E-03  0.7752E-03  0.9614E-04  0.9602E-04  0.8051E-04  0.8047E-04  0.3788E-04  0.3779E-04  0.8051E-04  0.8047E-04  0.3730E-04  0.3725E-04
     -2.415  0.1404E-01  0.1404E-01  0.9367E-03  0.9360E-03  0.7462E-03  0.7455E-03  0.9367E-03  0.9360E-03  0.1107E-03  0.1106E-03  0.9613E-04  0.9601E-04  0.4534E-04  0.4524E-04  0.9613E-04  0.9601E-04  0.5213E-04  0.5211E-04
     -2.361  0.1492E-01  0.1492E-01  0.1013E-02  0.1013E-02  0.9392E-03  0.9380E-03  0.1013E-02  0.1013E-02  0.1156E-03  0.1155E-03  0.1235E-03  0.1233E-03  0.5215E-04  0.5205E-04  0.1235E-03  0.1233E-03  0.5991E-04  0.5994E-04
     -2.307  0.1524E-01  0.1524E-01  0.1038E-02  0.1037E-02  0.1162E-02  0.1161E-02  0.1038E-02  0.1037E-02  0.1295E-03  0.1293E-03  0.1473E-03  0.1471E-03  0.5995E-04  0.5984E-04  0.1473E-03  0.1471E-03  0.6066E-04  0.6069E-04
     -2.253  0.1544E-01  0.1544E-01  0.1091E-02  0.1091E-02  0.1315E-02  0.1315E-02  0.1091E-02  0.1091E-02  0.1572E-03  0.1570E-03  0.1622E-03  0.1621E-03  0.6965E-04  0.6956E-04  0.1622E-03  0.1621E-03  0.6204E-04  0.6204E-04
     -2.198  0.1466E-01  0.1467E-01  0.1073E-02  0.1073E-02  0.1367E-02  0.1367E-02  0.1073E-02  0.1073E-02  0.1731E-03  0.1730E-03  0.1689E-03  0.1688E-03  0.7429E-04  0.7424E-04  0.1689E-03  0.1688E-03  0.5920E-04  0.5923E-04
     -2.144  0.1285E-01  0.1286E-01  0.9660E-03  0.9664E-03  0.1353E-02  0.1353E-02  0.9660E-03  0.9664E-03  0.1816E-03  0.1815E-03  0.1689E-03  0.1688E-03  0.7551E-04  0.7546E-04  0.1689E-03  0.1688E-03  0.4969E-04  0.4973E-04
     -2.090  0.1214E-01  0.1214E-01  0.9911E-03  0.9904E-03  0.1385E-02  0.1384E-02  0.9911E-03  0.9904E-03  0.2135E-03  0.2133E-03  0.1835E-03  0.1833E-03  0.8224E-04  0.8214E-04  0.1835E-03  0.1833E-03  0.4949E-04  0.4944E-04
     -2.036  0.1311E-01  0.1311E-01  0.1215E-02  0.1214E-02  0.1479E-02  0.1478E-02  0.1215E-02  0.1214E-02  0.2596E-03  0.2594E-03  0.2321E-03  0.2317E-03  0.8969E-04  0.8958E-04  0.2321E-03  0.2317E-03  0.6622E-04  0.6608E-04
     -1.982  0.1450E-01  0.1450E-01  0.1507E-02  0.1506E-02  0.1623E-02  0.1622E-02  0.1507E-02  0.1506E-02  0.2901E-03  0.2900E-03  0.3000E-03  0.2996E-03  0.9405E-04  0.9394E-04  0.3000E-03  0.2996E-03  0.9265E-04  0.9251E-04
     -1.928  0.1493E-01  0.1494E-01  0.1703E-02  0.1703E-02  0.1843E-02  0.1841E-02  0.1703E-02  0.1703E-02  0.2967E-03  0.2966E-03  0.3496E-03  0.3493E-03  0.1008E-03  0.1006E-03  0.3496E-03  0.3493E-03  0.1150E-03  0.1149E-03
     -1.874  0.1412E-01  0.1413E-01  0.1755E-02  0.1755E-02  0.2056E-02  0.2055E-02  0.1755E-02  0.1755E-02  0.3060E-03  0.3060E-03  0.3722E-03  0.3720E-03  0.1070E-03  0.1068E-03  0.3722E-03  0.3720E-03  0.1216E-03  0.1215E-03
     -1.820  0.1292E-01  0.1293E-01  0.1789E-02  0.1789E-02  0.2098E-02  0.2098E-02  0.1789E-02  0.1789E-02  0.3459E-03  0.3458E-03  0.3798E-03  0.3797E-03  0.1085E-03  0.1084E-03  0.3798E-03  0.3797E-03  0.1189E-03  0.1189E-03
     -1.765  0.1155E-01  0.1156E-01  0.1847E-02  0.1847E-02  0.1943E-02  0.1944E-02  0.1847E-02  0.1847E-02  0.4087E-03  0.4086E-03  0.3702E-03  0.3702E-03  0.1079E-03  0.1078E-03  0.3702E-03  0.3702E-03  0.1145E-03  0.1146E-03
     -1.711  0.1053E-01  0.1054E-01  0.1862E-02  0.1862E-02  0.1889E-02  0.1889E-02  0.1862E-02  0.1862E-02  0.4909E-03  0.4908E-03  0.3906E-03  0.3904E-03  0.1075E-03  0.1075E-03  0.3906E-03  0.3904E-03  0.1004E-03  0.1005E-03