  16  16   1   0
  0.2023240E+02  0.4321683E-09  0.4321683E-09  0.1733252E-08  0.5000000E-15
  1.000000000000000E-004
  CAR 
 unknown system                          
     11.11967241     -4.54510019  301      5.28774528      1.00000000
     -4.545  0.0000E+00  0.0000E+00  0.0000E+00  0.0000E+00
     -4.493  0.0000E+00  0.0000E+00  0.0000E+00  0.0000E+00
     -4.441  0.0000E+00  0.0000E+00  0.0000E+00  0.0000E+00
     -4.388  0.0000E+00  0.0000E+00  0.0000E+00  0.0000E+00
     -4.336  0.0000E+00  0.0000E+00  0.0000E+00  0.0000E+00
     -4.284  0.4573E-05  0.4559E-05  0.2388E-06  0.2381E-06
     -4.232  0.2885E-04  0.2876E-04  0.1745E-05  0.1740E-05
     -4.180  0.1485E-03  0.1480E-03  0.9497E-05  0.9469E-05
     -4.127  0.3784E-03  0.3773E-03  0.2926E-04  0.2917E-04
     -4.075  0.1057E-02  0.1054E-02  0.8446E-04  0.8421E-04
     -4.023  0.3094E-02  0.3085E-02  0.2460E-03  0.2453E-03
     -3.971  0.8740E-02  0.8715E-02  0.7024E-03  0.7004E-03
     -3.919  0.2331E-01  0.2324E-01  0.1919E-02  0.1914E-02
     -3.866  0.5833E-01  0.5819E-01  0.4965E-02  0.4952E-02
     -3.814  0.1266E+00  0.1264E+00  0.1158E-01  0.1155E-01
     -3.762  0.2245E+00  0.2242E+00  0.2330E-01  0.2326E-01
     -3.710  0.3227E+00  0.3224E+00  0.4014E-01  0.4009E-01
     -3.657  0.4089E+00  0.4086E+00  0.6150E-01  0.6143E-01
     -3.605  0.5074E+00  0.5071E+00  0.8799E-01  0.8791E-01
     -3.553  0.5938E+00  0.5937E+00  0.1190E+00  0.1189E+00
     -3.501  0.6137E+00  0.6137E+00  0.1510E+00  0.1510E+00
     -3.449  0.6338E+00  0.6336E+00  0.1841E+00  0.1840E+00
     -3.396  0.7311E+00  0.7308E+00  0.2223E+00  0.2222E+00
     -3.344  0.8236E+00  0.8234E+00  0.2653E+00  0.2652E+00
     -3.292  0.8463E+00  0.8463E+00  0.3095E+00  0.3094E+00
     -3.240  0.8592E+00  0.8591E+00  0.3544E+00  0.3543E+00
     -3.187  0.9083E+00  0.9081E+00  0.4019E+00  0.4017E+00
     -3.135  0.9445E+00  0.9444E+00  0.4512E+00  0.4511E+00
     -3.083  0.9365E+00  0.9365E+00  0.5001E+00  0.5000E+00
     -3.031  0.9759E+00  0.9757E+00  0.5511E+00  0.5509E+00
     -2.979  0.1082E+01  0.1081E+01  0.6076E+00  0.6074E+00
     -2.926  0.1171E+01  0.1171E+01  0.6688E+00  0.6686E+00
     -2.874  0.1215E+01  0.1215E+01  0.7323E+00  0.7321E+00
     -2.822  0.1188E+01  0.1188E+01  0.7943E+00  0.7941E+00
     -2.770  0.1131E+01  0.1131E+01  0.8534E+00  0.8532E+00
     -2.718  0.1124E+01  0.1124E+01  0.9121E+00  0.9119E+00
     -2.665  0.1185E+01  0.1185E+01  0.9740E+00  0.9738E+00
     -2.613  0.1304E+01  0.1304E+01  0.1042E+01  0.1042E+01
     -2.561  0.1408E+01  0.1408E+01  0.1116E+01  0.1116E+01
     -2.509  0.1473E+01  0.1473E+01  0.1193E+01  0.1192E+01
     -2.456  0.1519E+01  0.1519E+01  0.1272E+01  0.1272E+01
     -2.404  0.1462E+01  0.1463E+01  0.1348E+01  0.1348E+01
     -2.352  0.1334E+01  0.1334E+01  0.1418E+01  0.1418E+01
     -2.300  0.1331E+01  0.1331E+01  0.1488E+01  0.1487E+01
     -2.248  0.1488E+01  0.1488E+01  0.1565E+01  0.1565E+01
     -2.195  0.1691E+01  0.1690E+01  0.1654E+01  0.1653E+01
     -2.143  0.1814E+01  0.1814E+01  0.1748E+01  0.1748E+01
     -2.091  0.1823E+01  0.1823E+01  0.1844E+01  0.1843E+01
     -2.039  0.1776E+01  0.1776E+01  0.1937E+01  0.1936E+01
     -1.987  0.1698E+01  0.1699E+01  0.2025E+01  0.2025E+01
     -1.934  0.1650E+01  0.1650E+01  0.2111E+01  0.2111E+01
     -1.882  0.1681E+01  0.1680E+01  0.2199E+01  0.2199E+01
     -1.830  0.1775E+01  0.1774E+01  0.2292E+01  0.2292E+01
     -1.778  0.1809E+01  0.1809E+01  0.2386E+01  0.2386E+01
     -1.725  0.1703E+01  0.1703E+01  0.2475E+01  0.2475E+01
     -1.673  0.1517E+01  0.1518E+01  0.2555E+01  0.2554E+01
     -1.621  0.1391E+01  0.1391E+01  0.2627E+01  0.2627E+01
     -1.569  0.1415E+01  0.1415E+01  0.2701E+01  0.2701E+01
     -1.517  0.1581E+01  0.1580E+01  0.2784E+01  0.2784E+01
     -1.464  0.1754E+01  0.1753E+01  0.2875E+01  0.2875E+01
     -1.412  0.1845E+01  0.1844E+01  0.2972E+01  0.2972E+01
     -1.360  0.1839E+01  0.1840E+01  0.3068E+01  0.3068E+01
     -1.308  0.1714E+01  0.1715E+01  0.3158E+01  0.3157E+01
     -1.255  0.1575E+01  0.1575E+01  0.3240E+01  0.3240E+01
     -1.203  0.1604E+01  0.1604E+01  0.3324E+01  0.3323E+01
     -1.151  0.1796E+01  0.1795E+01  0.3417E+01  0.3417E+01
     -1.099  0.1944E+01  0.1943E+01  0.3519E+01  0.3519E+01
     -1.047  0.1984E+01  0.1984E+01  0.3623E+01  0.3622E+01
     -0.994  0.1953E+01  0.1953E+01  0.3725E+01  0.3724E+01
     -0.942  0.1849E+01  0.1849E+01  0.3821E+01  0.3821E+01
     -0.890  0.1767E+01  0.1767E+01  0.3914E+01  0.3913E+01
     -0.838  0.1830E+01  0.1830E+01  0.4009E+01  0.4009E+01
     -0.786  0.2061E+01  0.2061E+01  0.4117E+01  0.4117E+01
     -0.733  0.2348E+01  0.2348E+01  0.4240E+01  0.4239E+01
     -0.681  0.2498E+01  0.2498E+01  0.4370E+01  0.4370E+01
     -0.629  0.2444E+01  0.2444E+01  0.4498E+01  0.4497E+01
     -0.577  0.2280E+01  0.2280E+01  0.4617E+01  0.4617E+01
     -0.524  0.2151E+01  0.2151E+01  0.4729E+01  0.4729E+01
     -0.472  0.2109E+01  0.2109E+01  0.4839E+01  0.4839E+01
     -0.420  0.2114E+01  0.2114E+01  0.4950E+01  0.4950E+01
     -0.368  0.2142E+01  0.2142E+01  0.5062E+01  0.5061E+01
     -0.316  0.2168E+01  0.2168E+01  0.5175E+01  0.5175E+01
     -0.263  0.2131E+01  0.2131E+01  0.5286E+01  0.5286E+01
     -0.211  0.2108E+01  0.2108E+01  0.5397E+01  0.5396E+01
     -0.159  0.2248E+01  0.2247E+01  0.5514E+01  0.5514E+01
     -0.107  0.2473E+01  0.2473E+01  0.5643E+01  0.5643E+01
     -0.055  0.2587E+01  0.2587E+01  0.5778E+01  0.5778E+01
     -0.002  0.2517E+01  0.2517E+01  0.5910E+01  0.5909E+01
      0.050  0.2380E+01  0.2380E+01  0.6034E+01  0.6034E+01
      0.102  0.2255E+01  0.2255E+01  0.6152E+01  0.6152E+01
      0.154  0.2202E+01  0.2202E+01  0.6267E+01  0.6267E+01
      0.207  0.2283E+01  0.2283E+01  0.6386E+01  0.6386E+01
      0.259  0.2508E+01  0.2507E+01  0.6517E+01  0.6517E+01
      0.311  0.2784E+01  0.2784E+01  0.6663E+01  0.6662E+01
      0.363  0.2857E+01  0.2857E+01  0.6812E+01  0.6812E+01
      0.415  0.2622E+01  0.2622E+01  0.6949E+01  0.6949E+01
      0.468  0.2309E+01  0.2309E+01  0.7070E+01  0.7069E+01
      0.520  0.2328E+01  0.2328E+01  0.7191E+01  0.7191E+01
      0.572  0.2670E+01  0.2669E+01  0.7331E+01  0.7330E+01
      0.624  0.2953E+01  0.2953E+01  0.7485E+01  0.7485E+01
      0.676  0.3072E+01  0.3072E+01  0.7645E+01  0.7645E+01
      0.729  0.3123E+01  0.3123E+01  0.7809E+01  0.7808E+01
      0.781  0.3065E+01  0.3065E+01  0.7969E+01  0.7969E+01
      0.833  0.2928E+01  0.2928E+01  0.8122E+01  0.8122E+01
      0.885  0.2862E+01  0.2863E+01  0.8271E+01  0.8271E+01
      0.938  0.2869E+01  0.2870E+01  0.8421E+01  0.8421E+01
      0.990  0.2966E+01  0.2966E+01  0.8576E+01  0.8576E+01
      1.042  0.3138E+01  0.3138E+01  0.8740E+01  0.8740E+01
      1.094  0.3298E+01  0.3298E+01  0.8912E+01  0.8912E+01
      1.146  0.3314E+01  0.3314E+01  0.9086E+01  0.9085E+01
      1.199  0.3164E+01  0.3165E+01  0.9251E+01  0.9251E+01
      1.251  0.3040E+01  0.3040E+01  0.9410E+01  0.9409E+01
      1.303  0.2997E+01  0.2998E+01  0.9566E+01  0.9566E+01
      1.355  0.2981E+01  0.2981E+01  0.9722E+01  0.9722E+01
      1.408  0.2956E+01  0.2956E+01  0.9876E+01  0.9876E+01
      1.460  0.2843E+01  0.2843E+01  0.1002E+02  0.1002E+02
      1.512  0.2739E+01  0.2740E+01  0.1017E+02  0.1017E+02
      1.564  0.2863E+01  0.2863E+01  0.1032E+02  0.1032E+02
      1.616  0.3317E+01  0.3317E+01  0.1049E+02  0.1049E+02
      1.669  0.3883E+01  0.3883E+01  0.1069E+02  0.1069E+02
      1.721  0.4123E+01  0.4124E+01  0.1091E+02  0.1091E+02
      1.773  0.4062E+01  0.4063E+01  0.1112E+02  0.1112E+02
      1.825  0.3958E+01  0.3959E+01  0.1133E+02  0.1133E+02
      1.877  0.3974E+01  0.3975E+01  0.1154E+02  0.1154E+02
      1.930  0.4219E+01  0.4220E+01  0.1176E+02  0.1176E+02
      1.982  0.4686E+01  0.4686E+01  0.1200E+02  0.1200E+02
      2.034  0.5237E+01  0.5238E+01  0.1227E+02  0.1227E+02
      2.086  0.5771E+01  0.5772E+01  0.1258E+02  0.1258E+02
      2.139  0.6382E+01  0.6384E+01  0.1291E+02  0.1291E+02
      2.191  0.7038E+01  0.7040E+01  0.1328E+02  0.1328E+02
      2.243  0.7801E+01  0.7803E+01  0.1368E+02  0.1368E+02
      2.295  0.9255E+01  0.9259E+01  0.1417E+02  0.1417E+02
      2.347  0.1228E+02  0.1229E+02  0.1481E+02  0.1481E+02
      2.400  0.1699E+02  0.1701E+02  0.1570E+02  0.1570E+02
      2.452  0.2206E+02  0.2208E+02  0.1685E+02  0.1685E+02
      2.504  0.2589E+02  0.2591E+02  0.1820E+02  0.1820E+02
      2.556  0.2830E+02  0.2832E+02  0.1968E+02  0.1968E+02
      2.608  0.3025E+02  0.3026E+02  0.2126E+02  0.2126E+02
      2.661  0.3119E+02  0.3118E+02  0.2289E+02  0.2289E+02
      2.713  0.2880E+02  0.2877E+02  0.2439E+02  0.2440E+02
      2.765  0.2368E+02  0.2365E+02  0.2563E+02  0.2563E+02
      2.817  0.2026E+02  0.2024E+02  0.2669E+02  0.2669E+02
      2.870  0.1914E+02  0.1913E+02  0.2769E+02  0.2769E+02
      2.922  0.1681E+02  0.1681E+02  0.2857E+02  0.2857E+02
      2.974  0.1332E+02  0.1332E+02  0.2926E+02  0.2926E+02
      3.026  0.1058E+02  0.1058E+02  0.2982E+02  0.2982E+02
      3.078  0.8961E+01  0.8961E+01  0.3028E+02  0.3029E+02
      3.131  0.7964E+01  0.7964E+01  0.3070E+02  0.3070E+02
      3.183  0.7332E+01  0.7333E+01  0.3108E+02  0.3108E+02
      3.235  0.6970E+01  0.6970E+01  0.3145E+02  0.3145E+02
      3.287  0.6501E+01  0.6499E+01  0.3179E+02  0.3179E+02
      3.340  0.5762E+01  0.5760E+01  0.3209E+02  0.3209E+02
      3.392  0.5139E+01  0.5138E+01  0.3236E+02  0.3236E+02
      3.444  0.4938E+01  0.4937E+01  0.3262E+02  0.3262E+02
      3.496  0.4976E+01  0.4977E+01  0.3288E+02  0.3288E+02
      3.548  0.5009E+01  0.5009E+01  0.3314E+02  0.3314E+02
      3.601  0.5095E+01  0.5096E+01  0.3341E+02  0.3341E+02
      3.653  0.5181E+01  0.5181E+01  0.3368E+02  0.3368E+02
      3.705  0.5144E+01  0.5144E+01  0.3395E+02  0.3395E+02
      3.757  0.5090E+01  0.5089E+01  0.3421E+02  0.3421E+02
      3.809  0.4952E+01  0.4951E+01  0.3447E+02  0.3447E+02
      3.862  0.4711E+01  0.4710E+01  0.3472E+02  0.3472E+02
      3.914  0.4506E+01  0.4506E+01  0.3495E+02  0.3495E+02
      3.966  0.4417E+01  0.4417E+01  0.3518E+02  0.3518E+02
      4.018  0.4464E+01  0.4464E+01  0.3542E+02  0.3542E+02
      4.071  0.4523E+01  0.4523E+01  0.3565E+02  0.3565E+02
      4.123  0.4487E+01  0.4487E+01  0.3589E+02  0.3589E+02
      4.175  0.4283E+01  0.4283E+01  0.3611E+02  0.3611E+02
      4.227  0.3894E+01  0.3894E+01  0.3631E+02  0.3631E+02
      4.279  0.3454E+01  0.3455E+01  0.3649E+02  0.3649E+02
      4.332  0.3316E+01  0.3316E+01  0.3667E+02  0.3667E+02
      4.384  0.3470E+01  0.3470E+01  0.3685E+02  0.3685E+02
      4.436  0.3582E+01  0.3582E+01  0.3704E+02  0.3704E+02
      4.488  0.3495E+01  0.3495E+01  0.3722E+02  0.3722E+02
      4.540  0.3377E+01  0.3377E+01  0.3740E+02  0.3739E+02
      4.593  0.3375E+01  0.3374E+01  0.3757E+02  0.3757E+02
      4.645  0.3362E+01  0.3362E+01  0.3775E+02  0.3775E+02
      4.697  0.3388E+01  0.3388E+01  0.3792E+02  0.3792E+02
      4.749  0.3521E+01  0.3521E+01  0.3811E+02  0.3811E+02
      4.802  0.3594E+01  0.3594E+01  0.3830E+02  0.3830E+02
      4.854  0.3557E+01  0.3557E+01  0.3848E+02  0.3848E+02
      4.906  0.3452E+01  0.3452E+01  0.3866E+02  0.3866E+02
      4.958  0.3358E+01  0.3358E+01  0.3884E+02  0.3884E+02
      5.010  0.3373E+01  0.3372E+01  0.3901E+02  0.3901E+02
      5.063  0.3451E+01  0.3450E+01  0.3919E+02  0.3919E+02
      5.115  0.3540E+01  0.3540E+01  0.3938E+02  0.3938E+02
      5.167  0.3611E+01  0.3612E+01  0.3957E+02  0.3957E+02
      5.219  0.3642E+01  0.3643E+01  0.3976E+02  0.3976E+02
      5.271  0.3564E+01  0.3564E+01  0.3994E+02  0.3994E+02
      5.324  0.3412E+01  0.3412E+01  0.4012E+02  0.4012E+02
      5.376  0.3378E+01  0.3378E+01  0.4030E+02  0.4030E+02
      5.428  0.3492E+01  0.3492E+01  0.4048E+02  0.4048E+02
      5.480  0.3600E+01  0.3600E+01  0.4067E+02  0.4067E+02
      5.533  0.3591E+01  0.3591E+01  0.4086E+02  0.4086E+02
      5.585  0.3434E+01  0.3434E+01  0.4104E+02  0.4104E+02
      5.637  0.3288E+01  0.3289E+01  0.4121E+02  0.4121E+02
      5.689  0.3385E+01  0.3385E+01  0.4138E+02  0.4138E+02
      5.741  0.3576E+01  0.3576E+01  0.4157E+02  0.4157E+02
      5.794  0.3715E+01  0.3714E+01  0.4177E+02  0.4177E+02
      5.846  0.3959E+01  0.3958E+01  0.4197E+02  0.4197E+02
      5.898  0.4233E+01  0.4232E+01  0.4219E+02  0.4219E+02
      5.950  0.4239E+01  0.4239E+01  0.4242E+02  0.4241E+02
      6.003  0.4140E+01  0.4140E+01  0.4263E+02  0.4263E+02
      6.055  0.4218E+01  0.4218E+01  0.4285E+02  0.4285E+02
      6.107  0.4326E+01  0.4327E+01  0.4308E+02  0.4308E+02
      6.159  0.4317E+01  0.4317E+01  0.4330E+02  0.4330E+02
      6.211  0.4190E+01  0.4191E+01  0.4352E+02  0.4352E+02
      6.264  0.3910E+01  0.3911E+01  0.4373E+02  0.4373E+02
      6.316  0.3477E+01  0.3478E+01  0.4391E+02  0.4391E+02
      6.368  0.3151E+01  0.3151E+01  0.4407E+02  0.4407E+02
      6.420  0.3087E+01  0.3087E+01  0.4423E+02  0.4423E+02
      6.472  0.3163E+01  0.3162E+01  0.4440E+02  0.4440E+02
      6.525  0.3228E+01  0.3227E+01  0.4457E+02  0.4457E+02
      6.577  0.3265E+01  0.3264E+01  0.4474E+02  0.4474E+02
      6.629  0.3395E+01  0.3394E+01  0.4492E+02  0.4492E+02
      6.681  0.3704E+01  0.3704E+01  0.4511E+02  0.4511E+02
      6.734  0.4096E+01  0.4095E+01  0.4532E+02  0.4532E+02
      6.786  0.4392E+01  0.4392E+01  0.4555E+02  0.4555E+02
      6.838  0.4451E+01  0.4451E+01  0.4579E+02  0.4579E+02
      6.890  0.4341E+01  0.4342E+01  0.4601E+02  0.4601E+02
      6.942  0.4239E+01  0.4239E+01  0.4623E+02  0.4623E+02
      6.995  0.4195E+01  0.4195E+01  0.4645E+02  0.4645E+02
      7.047  0.4214E+01  0.4214E+01  0.4667E+02  0.4667E+02
      7.099  0.4194E+01  0.4194E+01  0.4689E+02  0.4689E+02
      7.151  0.4057E+01  0.4058E+01  0.4710E+02  0.4710E+02
      7.203  0.3907E+01  0.3908E+01  0.4731E+02  0.4731E+02
      7.256  0.3774E+01  0.3774E+01  0.4751E+02  0.4751E+02
      7.308  0.3742E+01  0.3741E+01  0.4770E+02  0.4770E+02
      7.360  0.3776E+01  0.3775E+01  0.4790E+02  0.4790E+02
      7.412  0.3702E+01  0.3702E+01  0.4809E+02  0.4809E+02
      7.465  0.3620E+01  0.3620E+01  0.4828E+02  0.4828E+02
      7.517  0.3616E+01  0.3616E+01  0.4847E+02  0.4847E+02
      7.569  0.3678E+01  0.3677E+01  0.4866E+02  0.4866E+02
      7.621  0.3859E+01  0.3858E+01  0.4886E+02  0.4886E+02
      7.673  0.4124E+01  0.4124E+01  0.4908E+02  0.4908E+02
      7.726  0.4406E+01  0.4406E+01  0.4931E+02  0.4931E+02
      7.778  0.4716E+01  0.4716E+01  0.4956E+02  0.4956E+02
      7.830  0.4866E+01  0.4867E+01  0.4981E+02  0.4981E+02
      7.882  0.4588E+01  0.4588E+01  0.5005E+02  0.5005E+02
      7.935  0.4008E+01  0.4008E+01  0.5026E+02  0.5026E+02
      7.987  0.3593E+01  0.3592E+01  0.5045E+02  0.5045E+02
      8.039  0.3502E+01  0.3501E+01  0.5063E+02  0.5063E+02
      8.091  0.3509E+01  0.3509E+01  0.5081E+02  0.5081E+02
      8.143  0.3466E+01  0.3466E+01  0.5099E+02  0.5099E+02
      8.196  0.3559E+01  0.3557E+01  0.5118E+02  0.5118E+02
      8.248  0.3951E+01  0.3949E+01  0.5139E+02  0.5139E+02
      8.300  0.4533E+01  0.4530E+01  0.5162E+02  0.5162E+02
      8.352  0.5029E+01  0.5024E+01  0.5189E+02  0.5188E+02
      8.404  0.5134E+01  0.5127E+01  0.5215E+02  0.5215E+02
      8.457  0.4700E+01  0.4698E+01  0.5240E+02  0.5240E+02
      8.509  0.4089E+01  0.4095E+01  0.5261E+02  0.5261E+02
      8.561  0.3923E+01  0.3922E+01  0.5282E+02  0.5282E+02
      8.613  0.4237E+01  0.4225E+01  0.5304E+02  0.5304E+02
      8.666  0.4517E+01  0.4525E+01  0.5328E+02  0.5327E+02
      8.718  0.4429E+01  0.4467E+01  0.5351E+02  0.5351E+02
      8.770  0.4023E+01  0.4089E+01  0.5372E+02  0.5372E+02
      8.822  0.3568E+01  0.3680E+01  0.5390E+02  0.5391E+02
      8.874  0.3285E+01  0.3423E+01  0.5408E+02  0.5409E+02
      8.927  0.3136E+01  0.3189E+01  0.5424E+02  0.5426E+02
      8.979  0.2976E+01  0.2861E+01  0.5439E+02  0.5441E+02
      9.031  0.2736E+01  0.2562E+01  0.5454E+02  0.5454E+02
      9.083  0.2502E+01  0.2370E+01  0.5467E+02  0.5467E+02
      9.135  0.2361E+01  0.2259E+01  0.5479E+02  0.5478E+02
      9.188  0.2276E+01  0.2195E+01  0.5491E+02  0.5490E+02
      9.240  0.2195E+01  0.2165E+01  0.5503E+02  0.5501E+02
      9.292  0.2035E+01  0.2083E+01  0.5513E+02  0.5512E+02
      9.344  0.1820E+01  0.1925E+01  0.5523E+02  0.5522E+02
      9.397  0.1702E+01  0.1797E+01  0.5532E+02  0.5532E+02
      9.449  0.1525E+01  0.1603E+01  0.5540E+02  0.5540E+02
      9.501  0.1213E+01  0.1278E+01  0.5546E+02  0.5547E+02
      9.553  0.1011E+01  0.1027E+01  0.5551E+02  0.5552E+02
      9.605  0.9727E+00  0.9389E+00  0.5556E+02  0.5557E+02
      9.658  0.9786E+00  0.9360E+00  0.5561E+02  0.5562E+02
      9.710  0.9603E+00  0.9290E+00  0.5566E+02  0.5567E+02
      9.762  0.8504E+00  0.8291E+00  0.5571E+02  0.5571E+02
      9.814  0.6617E+00  0.6505E+00  0.5574E+02  0.5574E+02
      9.866  0.4804E+00  0.4777E+00  0.5577E+02  0.5577E+02
      9.919  0.3842E+00  0.3904E+00  0.5579E+02  0.5579E+02
      9.971  0.3643E+00  0.3853E+00  0.5581E+02  0.5581E+02
     10.023  0.4027E+00  0.4403E+00  0.5583E+02  0.5583E+02
     10.075  0.4634E+00  0.4927E+00  0.5585E+02  0.5586E+02
     10.128  0.4769E+00  0.4630E+00  0.5588E+02  0.5588E+02
     10.180  0.4470E+00  0.3902E+00  0.5590E+02  0.5590E+02
     10.232  0.4291E+00  0.3735E+00  0.5592E+02  0.5592E+02
     10.284  0.4335E+00  0.4224E+00  0.5595E+02  0.5594E+02
     10.336  0.3909E+00  0.4283E+00  0.5597E+02  0.5597E+02
     10.389  0.2868E+00  0.3229E+00  0.5598E+02  0.5598E+02
     10.441  0.1816E+00  0.1803E+00  0.5599E+02  0.5599E+02
     10.493  0.9773E-01  0.7990E-01  0.5600E+02  0.5600E+02
     10.545  0.4343E-01  0.3102E-01  0.5600E+02  0.5600E+02
     10.598  0.1673E-01  0.1120E-01  0.5600E+02  0.5600E+02
     10.650  0.6123E-02  0.3999E-02  0.5600E+02  0.5600E+02
     10.702  0.1956E-02  0.1112E-02  0.5600E+02  0.5600E+02
     10.754  0.5419E-03  0.2266E-03  0.5600E+02  0.5600E+02
     10.806  0.1912E-03  0.0000E+00  0.5600E+02  0.5600E+02
     10.859  0.0000E+00  0.0000E+00  0.5600E+02  0.5600E+02
     10.911  0.0000E+00  0.0000E+00  0.5600E+02  0.5600E+02
     10.963  0.0000E+00  0.0000E+00  0.5600E+02  0.5600E+02
     11.015  0.0000E+00  0.0000E+00  0.5600E+02  0.5600E+02
     11.067  0.0000E+00  0.0000E+00  0.5600E+02  0.5600E+02
     11.120  0.0000E+00  0.0000E+00  0.5600E+02  0.5600E+02
     11.11967241     -4.54510019  301      5.28774528      1.00000000
     -4.545  0.0000E+00  0.0000E+00  0.0000E+00  0.0000E+00  0.0000E+00  0.0000E+00  0.0000E+00  0.0000E+00  0.0000E+00  0.0000E+00  0.0000E+00  0.0000E+00  0.0000E+00  0.0000E+00  0.0000E+00  0.0000E+00  0.0000E+00  0.0000E+00
     -4.493  0.0000E+00  0.0000E+00  0.0000E+00  0.0000E+00  0.0000E+00  0.0000E+00  0.0000E+00  0.0000E+00  0.0000E+00  0.0000E+00  0.0000E+00  0.0000E+00  0.0000E+00  0.0000E+00  0.0000E+00  0.0000E+00  0.0000E+00  0.0000E+00
     -4.441  0.0000E+00  0.0000E+00  0.0000E+00  0.0000E+00  0.0000E+00  0.0000E+00  0.0000E+00  0.0000E+00  0.0000E+00  0.0000E+00  0.0000E+00  0.0000E+00  0.0000E+00  0.0000E+00  0.0000E+00  0.0000E+00  0.0000E+00  0.0000E+00
     -4.388  0.0000E+00  0.0000E+00  0.0000E+00  0.0000E+00  0.0000E+00  0.0000E+00  0.0000E+00  0.0000E+00  0.0000E+00  0.0000E+00  0.0000E+00  0.0000E+00  0.0000E+00  0.0000E+00  0.0000E+00  0.0000E+00  0.0000E+00  0.0000E+00
     -4.336  0.0000E+00  0.0000E+00  0.0000E+00  0.0000E+00  0.0000E+00  0.0000E+00  0.0000E+00  0.0000E+00  0.0000E+00  0.0000E+00  0.0000E+00  0.0000E+00  0.0000E+00  0.0000E+00  0.0000E+00  0.0000E+00  0.0000E+00  0.0000E+00
     -4.284  0.6495E-07  0.6477E-07  0.1311E-20  0.1867E-20  0.2426E-11  0.2407E-11  0.1311E-20  0.1867E-20  0.2110E-17  0.2812E-19  0.9733E-16  0.2064E-17  0.1138E-11  0.1140E-11  0.9733E-16  0.2064E-17  0.7688E-15  0.1724E-15
     -4.232  0.4073E-06  0.4061E-06  0.7645E-09  0.7622E-09  0.1578E-10  0.1570E-10  0.7645E-09  0.7622E-09  0.4313E-17  0.1161E-17  0.4507E-13  0.3826E-13  0.1292E-10  0.1239E-10  0.4507E-13  0.3826E-13  0.3306E-11  0.3119E-11
     -4.180  0.2084E-05  0.2078E-05  0.4564E-08  0.4549E-08  0.5952E-08  0.5932E-08  0.4564E-08  0.4549E-08  0.2875E-10  0.2783E-10  0.2914E-10  0.2869E-10  0.5216E-10  0.5082E-10  0.2914E-10  0.2869E-10  0.1236E-10  0.1185E-10
     -4.127  0.5308E-05  0.5293E-05  0.1305E-07  0.1301E-07  0.1500E-07  0.1495E-07  0.1305E-07  0.1301E-07  0.1087E-09  0.1071E-09  0.1186E-09  0.1168E-09  0.1321E-09  0.1282E-09  0.1186E-09  0.1168E-09  0.2883E-10  0.2754E-10
     -4.075  0.1483E-04  0.1479E-04  0.3806E-07  0.3794E-07  0.3858E-07  0.3845E-07  0.3806E-07  0.3794E-07  0.2529E-09  0.2482E-09  0.2722E-09  0.2681E-09  0.4235E-09  0.4121E-09  0.2722E-09  0.2681E-09  0.1536E-09  0.1498E-09
     -4.023  0.4335E-04  0.4323E-04  0.1235E-06  0.1231E-06  0.1224E-06  0.1220E-06  0.1235E-06  0.1231E-06  0.1054E-08  0.1038E-08  0.9385E-09  0.9259E-09  0.1436E-08  0.1400E-08  0.9385E-09  0.9259E-09  0.5922E-09  0.5800E-09
     -3.971  0.1223E-03  0.1220E-03  0.3569E-06  0.3558E-06  0.3934E-06  0.3921E-06  0.3569E-06  0.3558E-06  0.3352E-08  0.3302E-08  0.3504E-08  0.3459E-08  0.4197E-08  0.4107E-08  0.3504E-08  0.3459E-08  0.1634E-08  0.1597E-08
     -3.919  0.3262E-03  0.3254E-03  0.9604E-06  0.9575E-06  0.1031E-05  0.1028E-05  0.9604E-06  0.9575E-06  0.8714E-08  0.8581E-08  0.8843E-08  0.8729E-08  0.1102E-07  0.1077E-07  0.8843E-08  0.8729E-08  0.4366E-08  0.4271E-08
     -3.866  0.8155E-03  0.8136E-03  0.2581E-05  0.2574E-05  0.2772E-05  0.2764E-05  0.2581E-05  0.2574E-05  0.2495E-07  0.2459E-07  0.2502E-07  0.2470E-07  0.2895E-07  0.2832E-07  0.2502E-07  0.2470E-07  0.1217E-07  0.1192E-07
     -3.814  0.1766E-02  0.1763E-02  0.6328E-05  0.6312E-05  0.6824E-05  0.6806E-05  0.6328E-05  0.6312E-05  0.6756E-07  0.6664E-07  0.6760E-07  0.6678E-07  0.6816E-07  0.6680E-07  0.6760E-07  0.6678E-07  0.3137E-07  0.3083E-07
     -3.762  0.3120E-02  0.3116E-02  0.1343E-04  0.1340E-04  0.1441E-04  0.1438E-04  0.1343E-04  0.1340E-04  0.1601E-06  0.1582E-06  0.1614E-06  0.1596E-06  0.1419E-06  0.1396E-06  0.1614E-06  0.1596E-06  0.7621E-07  0.7524E-07
     -3.710  0.4459E-02  0.4456E-02  0.2447E-04  0.2443E-04  0.2570E-04  0.2565E-04  0.2447E-04  0.2443E-04  0.3392E-06  0.3360E-06  0.3385E-06  0.3351E-06  0.2722E-06  0.2691E-06  0.3385E-06  0.3351E-06  0.1689E-06  0.1673E-06
     -3.657  0.5604E-02  0.5602E-02  0.4042E-04  0.4036E-04  0.4154E-04  0.4147E-04  0.4042E-04  0.4036E-04  0.6640E-06  0.6585E-06  0.6464E-06  0.6407E-06  0.5025E-06  0.4990E-06  0.6464E-06  0.6407E-06  0.3449E-06  0.3423E-06
     -3.605  0.6891E-02  0.6887E-02  0.6173E-04  0.6165E-04  0.6569E-04  0.6560E-04  0.6173E-04  0.6165E-04  0.1210E-05  0.1200E-05  0.1189E-05  0.1179E-05  0.8409E-06  0.8389E-06  0.1189E-05  0.1179E-05  0.5945E-06  0.5902E-06
     -3.553  0.7999E-02  0.7998E-02  0.8267E-04  0.8260E-04  0.9346E-04  0.9337E-04  0.8267E-04  0.8260E-04  0.1953E-05  0.1937E-05  0.1966E-05  0.1951E-05  0.1179E-05  0.1181E-05  0.1966E-05  0.1951E-05  0.8414E-06  0.8354E-06
     -3.501  0.8192E-02  0.8193E-02  0.9935E-04  0.9929E-04  0.1115E-03  0.1114E-03  0.9935E-04  0.9929E-04  0.2843E-05  0.2821E-05  0.2835E-05  0.2816E-05  0.1502E-05  0.1505E-05  0.2835E-05  0.2816E-05  0.1152E-05  0.1146E-05
     -3.449  0.8353E-02  0.8352E-02  0.1260E-03  0.1258E-03  0.1286E-03  0.1285E-03  0.1260E-03  0.1258E-03  0.4119E-05  0.4089E-05  0.4063E-05  0.4037E-05  0.2109E-05  0.2109E-05  0.4063E-05  0.4037E-05  0.1856E-05  0.1848E-05
     -3.396  0.9516E-02  0.9513E-02  0.1703E-03  0.1702E-03  0.1642E-03  0.1641E-03  0.1703E-03  0.1702E-03  0.5851E-05  0.5815E-05  0.5876E-05  0.5845E-05  0.3270E-05  0.3264E-05  0.5876E-05  0.5845E-05  0.3076E-05  0.3068E-05
     -3.344  0.1061E-01  0.1061E-01  0.2084E-03  0.2083E-03  0.2102E-03  0.2100E-03  0.2084E-03  0.2083E-03  0.7667E-05  0.7634E-05  0.7650E-05  0.7622E-05  0.4801E-05  0.4790E-05  0.7650E-05  0.7622E-05  0.4227E-05  0.4221E-05
     -3.292  0.1079E-01  0.1079E-01  0.2259E-03  0.2258E-03  0.2548E-03  0.2546E-03  0.2259E-03  0.2258E-03  0.9992E-05  0.9968E-05  0.9531E-05  0.9512E-05  0.6171E-05  0.6157E-05  0.9531E-05  0.9512E-05  0.4653E-05  0.4654E-05
     -3.240  0.1081E-01  0.1081E-01  0.2471E-03  0.2469E-03  0.2949E-03  0.2947E-03  0.2471E-03  0.2469E-03  0.1368E-04  0.1367E-04  0.1274E-04  0.1273E-04  0.7059E-05  0.7050E-05  0.1274E-04  0.1273E-04  0.4872E-05  0.4881E-05
     -3.187  0.1129E-01  0.1129E-01  0.2879E-03  0.2878E-03  0.3324E-03  0.3323E-03  0.2879E-03  0.2878E-03  0.1767E-04  0.1767E-04  0.1743E-04  0.1744E-04  0.7800E-05  0.7802E-05  0.1743E-04  0.1744E-04  0.6001E-05  0.6017E-05
     -3.135  0.1160E-01  0.1160E-01  0.3258E-03  0.3257E-03  0.3639E-03  0.3637E-03  0.3258E-03  0.3257E-03  0.1970E-04  0.1972E-04  0.2161E-04  0.2165E-04  0.8873E-05  0.8885E-05  0.2161E-04  0.2165E-04  0.8207E-05  0.8230E-05
     -3.083  0.1135E-01  0.1135E-01  0.3601E-03  0.3599E-03  0.3654E-03  0.3653E-03  0.3601E-03  0.3599E-03  0.2166E-04  0.2168E-04  0.2360E-04  0.2363E-04  0.1069E-04  0.1071E-04  0.2360E-04  0.2363E-04  0.1141E-04  0.1144E-04
     -3.031  0.1164E-01  0.1164E-01  0.4249E-03  0.4246E-03  0.3744E-03  0.3741E-03  0.4249E-03  0.4246E-03  0.2851E-04  0.2852E-04  0.2656E-04  0.2656E-04  0.1399E-04  0.1402E-04  0.2656E-04  0.2656E-04  0.1519E-04  0.1522E-04
     -2.979  0.1270E-01  0.1270E-01  0.4949E-03  0.4947E-03  0.4587E-03  0.4582E-03  0.4949E-03  0.4947E-03  0.3854E-04  0.3859E-04  0.3339E-04  0.3339E-04  0.1879E-04  0.1882E-04  0.3339E-04  0.3339E-04  0.1760E-04  0.1763E-04
     -2.926  0.1356E-01  0.1356E-01  0.5330E-03  0.5329E-03  0.5930E-03  0.5925E-03  0.5330E-03  0.5329E-03  0.4616E-04  0.4627E-04  0.4267E-04  0.4269E-04  0.2364E-04  0.2370E-04  0.4267E-04  0.4269E-04  0.1858E-04  0.1862E-04
     -2.874  0.1387E-01  0.1387E-01  0.5593E-03  0.5592E-03  0.6907E-03  0.6905E-03  0.5593E-03  0.5592E-03  0.5127E-04  0.5141E-04  0.5260E-04  0.5264E-04  0.2643E-04  0.2654E-04  0.5260E-04  0.5264E-04  0.2007E-04  0.2013E-04
     -2.822  0.1337E-01  0.1338E-01  0.5654E-03  0.5655E-03  0.7201E-03  0.7200E-03  0.5654E-03  0.5655E-03  0.5556E-04  0.5569E-04  0.6081E-04  0.6085E-04  0.2679E-04  0.2691E-04  0.6081E-04  0.6085E-04  0.2074E-04  0.2080E-04
     -2.770  0.1252E-01  0.1253E-01  0.5580E-03  0.5580E-03  0.7367E-03  0.7367E-03  0.5580E-03  0.5580E-03  0.6182E-04  0.6194E-04  0.6787E-04  0.6791E-04  0.2756E-04  0.2766E-04  0.6787E-04  0.6791E-04  0.2035E-04  0.2038E-04
     -2.718  0.1221E-01  0.1221E-01  0.6095E-03  0.6092E-03  0.7232E-03  0.7234E-03  0.6095E-03  0.6092E-03  0.7503E-04  0.7517E-04  0.7337E-04  0.7341E-04  0.3051E-04  0.3059E-04  0.7337E-04  0.7341E-04  0.2436E-04  0.2436E-04
     -2.665  0.1263E-01  0.1263E-01  0.7430E-03  0.7425E-03  0.6738E-03  0.6738E-03  0.7430E-03  0.7425E-03  0.9349E-04  0.9365E-04  0.7895E-04  0.7894E-04  0.3573E-04  0.3580E-04  0.7895E-04  0.7894E-04  0.3552E-04  0.3549E-04
     -2.613  0.1360E-01  0.1360E-01  0.8844E-03  0.8842E-03  0.7255E-03  0.7251E-03  0.8844E-03  0.8842E-03  0.1066E-03  0.1068E-03  0.9508E-04  0.9494E-04  0.4260E-04  0.4266E-04  0.9508E-04  0.9494E-04  0.4827E-04  0.4822E-04
     -2.561  0.1436E-01  0.1436E-01  0.9512E-03  0.9512E-03  0.9089E-03  0.9082E-03  0.9512E-03  0.9512E-03  0.1127E-03  0.1127E-03  0.1207E-03  0.1204E-03  0.4899E-04  0.4900E-04  0.1207E-03  0.1204E-03  0.5465E-04  0.5460E-04
     -2.509  0.1467E-01  0.1467E-01  0.9794E-03  0.9794E-03  0.1111E-02  0.1111E-02  0.9794E-03  0.9794E-03  0.1277E-03  0.1275E-03  0.1427E-03  0.1423E-03  0.5633E-04  0.5628E-04  0.1427E-03  0.1423E-03  0.5556E-04  0.5549E-04
     -2.456  0.1475E-01  0.1475E-01  0.1024E-02  0.1024E-02  0.1245E-02  0.1244E-02  0.1024E-02  0.1024E-02  0.1530E-03  0.1527E-03  0.1565E-03  0.1561E-03  0.6444E-04  0.6436E-04  0.1565E-03  0.1561E-03  0.5657E-04  0.5646E-04
     -2.404  0.1387E-01  0.1388E-01  0.9971E-03  0.9975E-03  0.1286E-02  0.1286E-02  0.9971E-03  0.9975E-03  0.1673E-03  0.1670E-03  0.1628E-03  0.1624E-03  0.6802E-04  0.6791E-04  0.1628E-03  0.1624E-03  0.5325E-04  0.5316E-04
     -2.352  0.1229E-01  0.1230E-01  0.9148E-03  0.9150E-03  0.1282E-02  0.1282E-02  0.9148E-03  0.9150E-03  0.1785E-03  0.1781E-03  0.1650E-03  0.1645E-03  0.6981E-04  0.6965E-04  0.1650E-03  0.1645E-03  0.4575E-04  0.4567E-04
     -2.300  0.1180E-01  0.1180E-01  0.9643E-03  0.9638E-03  0.1321E-02  0.1321E-02  0.9643E-03  0.9638E-03  0.2108E-03  0.2104E-03  0.1829E-03  0.1823E-03  0.7610E-04  0.7588E-04  0.1829E-03  0.1823E-03  0.4761E-04  0.4748E-04
     -2.248  0.1274E-01  0.1274E-01  0.1184E-02  0.1183E-02  0.1414E-02  0.1414E-02  0.1184E-02  0.1183E-02  0.2532E-03  0.2528E-03  0.2313E-03  0.2304E-03  0.8250E-04  0.8227E-04  0.2313E-03  0.2304E-03  0.6381E-04  0.6363E-04
     -2.195  0.1393E-01  0.1393E-01  0.1449E-02  0.1449E-02  0.1568E-02  0.1567E-02  0.1449E-02  0.1449E-02  0.2803E-03  0.2801E-03  0.2942E-03  0.2933E-03  0.8721E-04  0.8696E-04  0.2942E-03  0.2933E-03  0.8720E-04  0.8699E-04
     -2.143  0.1417E-01  0.1417E-01  0.1615E-02  0.1615E-02  0.1786E-02  0.1785E-02  0.1615E-02  0.1615E-02  0.2878E-03  0.2875E-03  0.3390E-03  0.3381E-03  0.9350E-04  0.9323E-04  0.3390E-03  0.3381E-03  0.1050E-03  0.1048E-03
     -2.091  0.1333E-01  0.1334E-01  0.1662E-02  0.1662E-02  0.1959E-02  0.1959E-02  0.1662E-02  0.1662E-02  0.3018E-03  0.3015E-03  0.3601E-03  0.3593E-03  0.9818E-04  0.9795E-04  0.3601E-03  0.3593E-03  0.1092E-03  0.1090E-03
     -2.039  0.1214E-01  0.1215E-01  0.1703E-02  0.1703E-02  0.1955E-02  0.1955E-02  0.1703E-02  0.1703E-02  0.3432E-03  0.3427E-03  0.3658E-03  0.3650E-03  0.9899E-04  0.9882E-04  0.3658E-03  0.3650E-03  0.1066E-03  0.1064E-03
     -1.987  0.1085E-01  0.1086E-01  0.1750E-02  0.1749E-02  0.1821E-02  0.1821E-02  0.1750E-02  0.1749E-02  0.4049E-03  0.4042E-03  0.3605E-03  0.3598E-03  0.9836E-04  0.9825E-04  0.3605E-03  0.3598E-03  0.1012E-03  0.1010E-03
     -1.934  0.9964E-02  0.9970E-02  0.1758E-02  0.1758E-02  0.1781E-02  0.1781E-02  0.1758E-02  0.1758E-02  0.4841E-03  0.4833E-03  0.3880E-03  0.3870E-03  0.9757E-04  0.9751E-04  0.3880E-03  0.3870E-03  0.8734E-04  0.8721E-04