  16  16   1   0
  0.1222695E+02  0.3653786E-09  0.3653786E-09  0.1465385E-08  0.5000000E-15
  1.000000000000000E-004
  CAR 
 unknown system                          
     19.31982090     -2.95289295  301     10.76601791      1.00000000
     -2.953  0.0000E+00  0.0000E+00  0.0000E+00  0.0000E+00
     -2.879  0.0000E+00  0.0000E+00  0.0000E+00  0.0000E+00
     -2.804  0.0000E+00  0.0000E+00  0.0000E+00  0.0000E+00
     -2.730  0.0000E+00  0.0000E+00  0.0000E+00  0.0000E+00
     -2.656  0.0000E+00  0.0000E+00  0.0000E+00  0.0000E+00
     -2.582  0.0000E+00  0.0000E+00  0.0000E+00  0.0000E+00
     -2.507  0.0000E+00  0.0000E+00  0.0000E+00  0.0000E+00
     -2.433  0.0000E+00  0.0000E+00  0.0000E+00  0.0000E+00
     -2.359  0.6160E-05  0.6146E-05  0.4573E-06  0.4563E-06
     -2.285  0.6157E-04  0.6143E-04  0.5028E-05  0.5017E-05
     -2.210  0.3194E-03  0.3187E-03  0.2874E-04  0.2868E-04
     -2.136  0.1386E-02  0.1383E-02  0.1316E-03  0.1313E-03
     -2.062  0.5899E-02  0.5886E-02  0.5696E-03  0.5683E-03
     -1.988  0.2306E-01  0.2301E-01  0.2281E-02  0.2277E-02
     -1.913  0.7196E-01  0.7185E-01  0.7624E-02  0.7611E-02
     -1.839  0.1586E+00  0.1585E+00  0.1940E-01  0.1938E-01
     -1.765  0.2374E+00  0.2373E+00  0.3703E-01  0.3700E-01
     -1.691  0.2798E+00  0.2797E+00  0.5780E-01  0.5777E-01
     -1.617  0.3614E+00  0.3612E+00  0.8463E-01  0.8458E-01
     -1.542  0.4630E+00  0.4629E+00  0.1190E+00  0.1190E+00
     -1.468  0.4341E+00  0.4343E+00  0.1512E+00  0.1512E+00
     -1.394  0.3973E+00  0.3972E+00  0.1808E+00  0.1807E+00
     -1.320  0.5256E+00  0.5254E+00  0.2198E+00  0.2197E+00
     -1.245  0.6259E+00  0.6259E+00  0.2663E+00  0.2662E+00
     -1.171  0.5993E+00  0.5994E+00  0.3108E+00  0.3107E+00
     -1.097  0.5859E+00  0.5859E+00  0.3544E+00  0.3543E+00
     -1.023  0.6539E+00  0.6537E+00  0.4029E+00  0.4028E+00
     -0.948  0.6995E+00  0.6996E+00  0.4549E+00  0.4548E+00
     -0.874  0.6288E+00  0.6289E+00  0.5016E+00  0.5015E+00
     -0.800  0.6576E+00  0.6574E+00  0.5505E+00  0.5504E+00
     -0.726  0.7871E+00  0.7869E+00  0.6089E+00  0.6088E+00
     -0.651  0.8500E+00  0.8499E+00  0.6720E+00  0.6719E+00
     -0.577  0.9051E+00  0.9051E+00  0.7393E+00  0.7392E+00
     -0.503  0.8502E+00  0.8503E+00  0.8025E+00  0.8024E+00
     -0.429  0.7656E+00  0.7657E+00  0.8593E+00  0.8592E+00
     -0.354  0.7684E+00  0.7684E+00  0.9164E+00  0.9163E+00
     -0.280  0.8143E+00  0.8141E+00  0.9769E+00  0.9768E+00
     -0.206  0.9465E+00  0.9462E+00  0.1047E+01  0.1047E+01
     -0.132  0.1018E+01  0.1018E+01  0.1123E+01  0.1123E+01
     -0.057  0.1038E+01  0.1038E+01  0.1200E+01  0.1200E+01
      0.017  0.1129E+01  0.1129E+01  0.1284E+01  0.1284E+01
      0.091  0.1059E+01  0.1059E+01  0.1363E+01  0.1362E+01
      0.165  0.8411E+00  0.8413E+00  0.1425E+01  0.1425E+01
      0.240  0.8677E+00  0.8674E+00  0.1490E+01  0.1489E+01
      0.314  0.1068E+01  0.1067E+01  0.1569E+01  0.1569E+01
      0.388  0.1232E+01  0.1232E+01  0.1660E+01  0.1660E+01
      0.462  0.1254E+01  0.1254E+01  0.1754E+01  0.1753E+01
      0.536  0.1229E+01  0.1229E+01  0.1845E+01  0.1845E+01
      0.611  0.1204E+01  0.1204E+01  0.1934E+01  0.1934E+01
      0.685  0.1134E+01  0.1134E+01  0.2019E+01  0.2018E+01
      0.759  0.1145E+01  0.1145E+01  0.2104E+01  0.2104E+01
      0.833  0.1170E+01  0.1170E+01  0.2191E+01  0.2191E+01
      0.908  0.1332E+01  0.1332E+01  0.2290E+01  0.2289E+01
      0.982  0.1417E+01  0.1417E+01  0.2395E+01  0.2395E+01
      1.056  0.1271E+01  0.1272E+01  0.2489E+01  0.2489E+01
      1.130  0.1118E+01  0.1118E+01  0.2572E+01  0.2572E+01
      1.205  0.1080E+01  0.1080E+01  0.2653E+01  0.2653E+01
      1.279  0.1163E+01  0.1162E+01  0.2739E+01  0.2739E+01
      1.353  0.1338E+01  0.1338E+01  0.2838E+01  0.2838E+01
      1.427  0.1427E+01  0.1427E+01  0.2944E+01  0.2944E+01
      1.502  0.1519E+01  0.1518E+01  0.3057E+01  0.3057E+01
      1.576  0.1475E+01  0.1475E+01  0.3167E+01  0.3167E+01
      1.650  0.1330E+01  0.1330E+01  0.3266E+01  0.3266E+01
      1.724  0.1259E+01  0.1258E+01  0.3359E+01  0.3359E+01
      1.799  0.1321E+01  0.1321E+01  0.3457E+01  0.3457E+01
      1.873  0.1505E+01  0.1505E+01  0.3569E+01  0.3569E+01
      1.947  0.1534E+01  0.1534E+01  0.3683E+01  0.3683E+01
      2.021  0.1503E+01  0.1503E+01  0.3795E+01  0.3795E+01
      2.096  0.1447E+01  0.1447E+01  0.3902E+01  0.3902E+01
      2.170  0.1420E+01  0.1420E+01  0.4008E+01  0.4008E+01
      2.244  0.1485E+01  0.1485E+01  0.4118E+01  0.4118E+01
      2.318  0.1591E+01  0.1590E+01  0.4236E+01  0.4236E+01
      2.393  0.1820E+01  0.1820E+01  0.4372E+01  0.4371E+01
      2.467  0.1848E+01  0.1848E+01  0.4509E+01  0.4509E+01
      2.541  0.1649E+01  0.1650E+01  0.4631E+01  0.4631E+01
      2.615  0.1491E+01  0.1491E+01  0.4742E+01  0.4742E+01
      2.690  0.1562E+01  0.1562E+01  0.4858E+01  0.4858E+01
      2.764  0.1623E+01  0.1623E+01  0.4979E+01  0.4979E+01
      2.838  0.1630E+01  0.1630E+01  0.5100E+01  0.5100E+01
      2.912  0.1816E+01  0.1816E+01  0.5235E+01  0.5235E+01
      2.986  0.1778E+01  0.1779E+01  0.5367E+01  0.5367E+01
      3.061  0.1693E+01  0.1692E+01  0.5493E+01  0.5492E+01
      3.135  0.1883E+01  0.1882E+01  0.5632E+01  0.5632E+01
      3.209  0.1998E+01  0.1998E+01  0.5781E+01  0.5781E+01
      3.283  0.1951E+01  0.1951E+01  0.5926E+01  0.5926E+01
      3.358  0.1896E+01  0.1896E+01  0.6067E+01  0.6067E+01
      3.432  0.1857E+01  0.1857E+01  0.6205E+01  0.6204E+01
      3.506  0.1931E+01  0.1931E+01  0.6348E+01  0.6348E+01
      3.580  0.1983E+01  0.1983E+01  0.6495E+01  0.6495E+01
      3.655  0.2146E+01  0.2146E+01  0.6655E+01  0.6655E+01
      3.729  0.2196E+01  0.2196E+01  0.6818E+01  0.6818E+01
      3.803  0.2068E+01  0.2069E+01  0.6972E+01  0.6971E+01
      3.877  0.2014E+01  0.2014E+01  0.7121E+01  0.7121E+01
      3.952  0.1977E+01  0.1977E+01  0.7268E+01  0.7268E+01
      4.026  0.1924E+01  0.1924E+01  0.7411E+01  0.7411E+01
      4.100  0.2141E+01  0.2140E+01  0.7570E+01  0.7570E+01
      4.174  0.2502E+01  0.2502E+01  0.7756E+01  0.7756E+01
      4.249  0.2706E+01  0.2706E+01  0.7957E+01  0.7957E+01
      4.323  0.2850E+01  0.2850E+01  0.8169E+01  0.8169E+01
      4.397  0.2770E+01  0.2770E+01  0.8375E+01  0.8374E+01
      4.471  0.2614E+01  0.2614E+01  0.8569E+01  0.8568E+01
      4.546  0.2637E+01  0.2637E+01  0.8765E+01  0.8764E+01
      4.620  0.2748E+01  0.2748E+01  0.8969E+01  0.8969E+01
      4.694  0.2655E+01  0.2655E+01  0.9166E+01  0.9166E+01
      4.768  0.2556E+01  0.2556E+01  0.9356E+01  0.9356E+01
      4.843  0.2644E+01  0.2643E+01  0.9552E+01  0.9552E+01
      4.917  0.3051E+01  0.3050E+01  0.9779E+01  0.9779E+01
      4.991  0.3517E+01  0.3516E+01  0.1004E+02  0.1004E+02
      5.065  0.3564E+01  0.3564E+01  0.1031E+02  0.1030E+02
      5.140  0.3659E+01  0.3659E+01  0.1058E+02  0.1058E+02
      5.214  0.4015E+01  0.4014E+01  0.1088E+02  0.1087E+02
      5.288  0.4397E+01  0.4396E+01  0.1120E+02  0.1120E+02
      5.362  0.4862E+01  0.4861E+01  0.1156E+02  0.1156E+02
      5.436  0.5236E+01  0.5235E+01  0.1195E+02  0.1195E+02
      5.511  0.5937E+01  0.5935E+01  0.1239E+02  0.1239E+02
      5.585  0.7093E+01  0.7090E+01  0.1292E+02  0.1292E+02
      5.659  0.8086E+01  0.8084E+01  0.1352E+02  0.1352E+02
      5.733  0.8742E+01  0.8740E+01  0.1417E+02  0.1417E+02
      5.808  0.9619E+01  0.9614E+01  0.1488E+02  0.1488E+02
      5.882  0.1137E+02  0.1136E+02  0.1573E+02  0.1573E+02
      5.956  0.1379E+02  0.1378E+02  0.1675E+02  0.1675E+02
      6.030  0.1554E+02  0.1554E+02  0.1791E+02  0.1790E+02
      6.105  0.1572E+02  0.1572E+02  0.1907E+02  0.1907E+02
      6.179  0.1549E+02  0.1549E+02  0.2022E+02  0.2022E+02
      6.253  0.1648E+02  0.1647E+02  0.2145E+02  0.2144E+02
      6.327  0.1811E+02  0.1810E+02  0.2279E+02  0.2279E+02
      6.402  0.1741E+02  0.1742E+02  0.2409E+02  0.2408E+02
      6.476  0.1348E+02  0.1349E+02  0.2509E+02  0.2509E+02
      6.550  0.8501E+01  0.8515E+01  0.2572E+02  0.2572E+02
      6.624  0.5174E+01  0.5179E+01  0.2611E+02  0.2610E+02
      6.699  0.6786E+01  0.6779E+01  0.2661E+02  0.2661E+02
      6.773  0.1027E+02  0.1026E+02  0.2737E+02  0.2737E+02
      6.847  0.9807E+01  0.9810E+01  0.2810E+02  0.2810E+02
      6.921  0.7657E+01  0.7660E+01  0.2867E+02  0.2867E+02
      6.996  0.5962E+01  0.5965E+01  0.2911E+02  0.2911E+02
      7.070  0.4911E+01  0.4913E+01  0.2948E+02  0.2948E+02
      7.144  0.4364E+01  0.4365E+01  0.2980E+02  0.2980E+02
      7.218  0.4072E+01  0.4073E+01  0.3011E+02  0.3011E+02
      7.293  0.3900E+01  0.3901E+01  0.3040E+02  0.3040E+02
      7.367  0.3749E+01  0.3749E+01  0.3068E+02  0.3068E+02
      7.441  0.3694E+01  0.3694E+01  0.3095E+02  0.3095E+02
      7.515  0.3745E+01  0.3745E+01  0.3123E+02  0.3123E+02
      7.590  0.3953E+01  0.3953E+01  0.3152E+02  0.3152E+02
      7.664  0.3940E+01  0.3941E+01  0.3182E+02  0.3181E+02
      7.738  0.3579E+01  0.3581E+01  0.3208E+02  0.3208E+02
      7.812  0.2919E+01  0.2921E+01  0.3230E+02  0.3230E+02
      7.886  0.2408E+01  0.2408E+01  0.3248E+02  0.3248E+02
      7.961  0.2425E+01  0.2425E+01  0.3266E+02  0.3266E+02
      8.035  0.2850E+01  0.2849E+01  0.3287E+02  0.3287E+02
      8.109  0.3024E+01  0.3024E+01  0.3309E+02  0.3309E+02
      8.183  0.2648E+01  0.2649E+01  0.3329E+02  0.3329E+02
      8.258  0.2304E+01  0.2305E+01  0.3346E+02  0.3346E+02
      8.332  0.2410E+01  0.2410E+01  0.3364E+02  0.3364E+02
      8.406  0.2535E+01  0.2536E+01  0.3383E+02  0.3383E+02
      8.480  0.2454E+01  0.2454E+01  0.3401E+02  0.3401E+02
      8.555  0.2342E+01  0.2342E+01  0.3419E+02  0.3419E+02
      8.629  0.2099E+01  0.2100E+01  0.3434E+02  0.3434E+02
      8.703  0.1821E+01  0.1821E+01  0.3448E+02  0.3448E+02
      8.777  0.1959E+01  0.1958E+01  0.3462E+02  0.3462E+02
      8.852  0.2329E+01  0.2328E+01  0.3480E+02  0.3480E+02
      8.926  0.2742E+01  0.2741E+01  0.3500E+02  0.3500E+02
      9.000  0.2933E+01  0.2933E+01  0.3522E+02  0.3522E+02
      9.074  0.2890E+01  0.2890E+01  0.3543E+02  0.3543E+02
      9.149  0.2847E+01  0.2847E+01  0.3564E+02  0.3564E+02
      9.223  0.2847E+01  0.2847E+01  0.3585E+02  0.3585E+02
      9.297  0.2929E+01  0.2929E+01  0.3607E+02  0.3607E+02
      9.371  0.2729E+01  0.2729E+01  0.3628E+02  0.3627E+02
      9.446  0.2539E+01  0.2539E+01  0.3646E+02  0.3646E+02
      9.520  0.2553E+01  0.2554E+01  0.3665E+02  0.3665E+02
      9.594  0.2447E+01  0.2447E+01  0.3684E+02  0.3683E+02
      9.668  0.2452E+01  0.2451E+01  0.3702E+02  0.3702E+02
      9.743  0.2514E+01  0.2514E+01  0.3720E+02  0.3720E+02
      9.817  0.2532E+01  0.2532E+01  0.3739E+02  0.3739E+02
      9.891  0.2677E+01  0.2677E+01  0.3759E+02  0.3759E+02
      9.965  0.2820E+01  0.2820E+01  0.3780E+02  0.3780E+02
     10.040  0.2835E+01  0.2835E+01  0.3801E+02  0.3801E+02
     10.114  0.2832E+01  0.2832E+01  0.3822E+02  0.3822E+02
     10.188  0.2772E+01  0.2772E+01  0.3843E+02  0.3843E+02
     10.262  0.2891E+01  0.2891E+01  0.3864E+02  0.3864E+02
     10.336  0.2768E+01  0.2769E+01  0.3885E+02  0.3885E+02
     10.411  0.2636E+01  0.2637E+01  0.3904E+02  0.3904E+02
     10.485  0.2547E+01  0.2548E+01  0.3923E+02  0.3923E+02
     10.559  0.2592E+01  0.2592E+01  0.3943E+02  0.3943E+02
     10.633  0.2682E+01  0.2682E+01  0.3963E+02  0.3963E+02
     10.708  0.2811E+01  0.2811E+01  0.3983E+02  0.3983E+02
     10.782  0.2829E+01  0.2829E+01  0.4004E+02  0.4004E+02
     10.856  0.2638E+01  0.2639E+01  0.4024E+02  0.4024E+02
     10.930  0.2431E+01  0.2431E+01  0.4042E+02  0.4042E+02
     11.005  0.2491E+01  0.2491E+01  0.4061E+02  0.4061E+02
     11.079  0.2884E+01  0.2883E+01  0.4082E+02  0.4082E+02
     11.153  0.3169E+01  0.3168E+01  0.4106E+02  0.4106E+02
     11.227  0.2908E+01  0.2909E+01  0.4127E+02  0.4127E+02
     11.302  0.2614E+01  0.2614E+01  0.4147E+02  0.4147E+02
     11.376  0.2529E+01  0.2529E+01  0.4165E+02  0.4165E+02
     11.450  0.2433E+01  0.2433E+01  0.4183E+02  0.4183E+02
     11.524  0.2508E+01  0.2508E+01  0.4202E+02  0.4202E+02
     11.599  0.2756E+01  0.2756E+01  0.4223E+02  0.4223E+02
     11.673  0.2702E+01  0.2703E+01  0.4243E+02  0.4243E+02
     11.747  0.2317E+01  0.2318E+01  0.4260E+02  0.4260E+02
     11.821  0.2164E+01  0.2164E+01  0.4276E+02  0.4276E+02
     11.896  0.2091E+01  0.2091E+01  0.4292E+02  0.4291E+02
     11.970  0.2432E+01  0.2431E+01  0.4310E+02  0.4310E+02
     12.044  0.3007E+01  0.3006E+01  0.4332E+02  0.4332E+02
     12.118  0.2926E+01  0.2927E+01  0.4354E+02  0.4354E+02
     12.193  0.2754E+01  0.2754E+01  0.4374E+02  0.4374E+02
     12.267  0.2597E+01  0.2597E+01  0.4393E+02  0.4393E+02
     12.341  0.2515E+01  0.2515E+01  0.4412E+02  0.4412E+02
     12.415  0.2547E+01  0.2547E+01  0.4431E+02  0.4431E+02
     12.490  0.2513E+01  0.2514E+01  0.4450E+02  0.4450E+02
     12.564  0.2158E+01  0.2158E+01  0.4466E+02  0.4466E+02
     12.638  0.1897E+01  0.1897E+01  0.4480E+02  0.4480E+02
     12.712  0.2180E+01  0.2179E+01  0.4496E+02  0.4496E+02
     12.786  0.2902E+01  0.2901E+01  0.4518E+02  0.4518E+02
     12.861  0.3194E+01  0.3194E+01  0.4541E+02  0.4541E+02
     12.935  0.3176E+01  0.3175E+01  0.4565E+02  0.4565E+02
     13.009  0.3353E+01  0.3352E+01  0.4590E+02  0.4590E+02
     13.083  0.3567E+01  0.3567E+01  0.4616E+02  0.4616E+02
     13.158  0.3394E+01  0.3395E+01  0.4642E+02  0.4641E+02
     13.232  0.2993E+01  0.2994E+01  0.4664E+02  0.4664E+02
     13.306  0.2897E+01  0.2897E+01  0.4685E+02  0.4685E+02
     13.380  0.2735E+01  0.2735E+01  0.4706E+02  0.4706E+02
     13.455  0.2604E+01  0.2605E+01  0.4725E+02  0.4725E+02
     13.529  0.2697E+01  0.2696E+01  0.4745E+02  0.4745E+02
     13.603  0.3067E+01  0.3066E+01  0.4768E+02  0.4768E+02
     13.677  0.3404E+01  0.3403E+01  0.4793E+02  0.4793E+02
     13.752  0.3473E+01  0.3473E+01  0.4819E+02  0.4819E+02
     13.826  0.3285E+01  0.3285E+01  0.4843E+02  0.4843E+02
     13.900  0.3063E+01  0.3063E+01  0.4866E+02  0.4866E+02
     13.974  0.3006E+01  0.3006E+01  0.4888E+02  0.4888E+02
     14.049  0.2757E+01  0.2757E+01  0.4909E+02  0.4909E+02
     14.123  0.2522E+01  0.2522E+01  0.4928E+02  0.4928E+02
     14.197  0.2610E+01  0.2610E+01  0.4947E+02  0.4947E+02
     14.271  0.2943E+01  0.2943E+01  0.4969E+02  0.4969E+02
     14.346  0.3119E+01  0.3119E+01  0.4992E+02  0.4992E+02
     14.420  0.2792E+01  0.2793E+01  0.5013E+02  0.5013E+02
     14.494  0.2336E+01  0.2337E+01  0.5030E+02  0.5030E+02
     14.568  0.2288E+01  0.2288E+01  0.5047E+02  0.5047E+02
     14.643  0.2349E+01  0.2349E+01  0.5065E+02  0.5065E+02
     14.717  0.2566E+01  0.2566E+01  0.5084E+02  0.5084E+02
     14.791  0.3013E+01  0.3019E+01  0.5106E+02  0.5106E+02
     14.865  0.3308E+01  0.3310E+01  0.5131E+02  0.5131E+02
     14.940  0.3196E+01  0.3190E+01  0.5154E+02  0.5154E+02
     15.014  0.2872E+01  0.2863E+01  0.5176E+02  0.5176E+02
     15.088  0.2978E+01  0.2974E+01  0.5198E+02  0.5198E+02
     15.162  0.3436E+01  0.3444E+01  0.5223E+02  0.5223E+02
     15.236  0.3350E+01  0.3341E+01  0.5248E+02  0.5248E+02
     15.311  0.2781E+01  0.2745E+01  0.5269E+02  0.5269E+02
     15.385  0.2429E+01  0.2473E+01  0.5287E+02  0.5287E+02
     15.459  0.2489E+01  0.2569E+01  0.5305E+02  0.5306E+02
     15.533  0.2654E+01  0.2714E+01  0.5325E+02  0.5326E+02
     15.608  0.2779E+01  0.2803E+01  0.5346E+02  0.5347E+02
     15.682  0.2689E+01  0.2633E+01  0.5366E+02  0.5367E+02
     15.756  0.2527E+01  0.2412E+01  0.5385E+02  0.5384E+02
     15.830  0.2602E+01  0.2507E+01  0.5404E+02  0.5403E+02
     15.905  0.2544E+01  0.2515E+01  0.5423E+02  0.5422E+02
     15.979  0.2330E+01  0.2393E+01  0.5440E+02  0.5440E+02
     16.053  0.1977E+01  0.2131E+01  0.5455E+02  0.5455E+02
     16.127  0.1727E+01  0.1712E+01  0.5468E+02  0.5468E+02
     16.202  0.1866E+01  0.1756E+01  0.5482E+02  0.5481E+02
     16.276  0.2399E+01  0.2459E+01  0.5499E+02  0.5499E+02
     16.350  0.2283E+01  0.2429E+01  0.5516E+02  0.5518E+02
     16.424  0.1507E+01  0.1536E+01  0.5528E+02  0.5529E+02
     16.499  0.9410E+00  0.8330E+00  0.5535E+02  0.5535E+02
     16.573  0.6411E+00  0.4993E+00  0.5539E+02  0.5539E+02
     16.647  0.5033E+00  0.4257E+00  0.5543E+02  0.5542E+02
     16.721  0.5892E+00  0.5871E+00  0.5547E+02  0.5546E+02
     16.796  0.7854E+00  0.7825E+00  0.5553E+02  0.5552E+02
     16.870  0.6743E+00  0.6751E+00  0.5558E+02  0.5557E+02
     16.944  0.4986E+00  0.5205E+00  0.5562E+02  0.5561E+02
     17.018  0.5678E+00  0.5533E+00  0.5566E+02  0.5565E+02
     17.093  0.7184E+00  0.7045E+00  0.5572E+02  0.5570E+02
     17.167  0.7050E+00  0.7395E+00  0.5577E+02  0.5576E+02
     17.241  0.4059E+00  0.4652E+00  0.5580E+02  0.5579E+02
     17.315  0.1846E+00  0.2201E+00  0.5581E+02  0.5581E+02
     17.390  0.1883E+00  0.1897E+00  0.5583E+02  0.5582E+02
     17.464  0.3419E+00  0.3111E+00  0.5585E+02  0.5585E+02
     17.538  0.4621E+00  0.4078E+00  0.5589E+02  0.5588E+02
     17.612  0.4406E+00  0.3942E+00  0.5592E+02  0.5591E+02
     17.686  0.3654E+00  0.3698E+00  0.5595E+02  0.5593E+02
     17.761  0.2511E+00  0.3285E+00  0.5596E+02  0.5596E+02
     17.835  0.1173E+00  0.1682E+00  0.5597E+02  0.5597E+02
     17.909  0.3681E-01  0.5120E-01  0.5598E+02  0.5598E+02
     17.983  0.9540E-02  0.1378E-01  0.5598E+02  0.5598E+02
     18.058  0.3932E-02  0.9893E-02  0.5598E+02  0.5598E+02
     18.132  0.8789E-02  0.2795E-01  0.5598E+02  0.5598E+02
     18.206  0.3265E-01  0.7760E-01  0.5598E+02  0.5598E+02
     18.280  0.8657E-01  0.1081E+00  0.5599E+02  0.5599E+02
     18.355  0.1087E+00  0.6627E-01  0.5599E+02  0.5600E+02
     18.429  0.5715E-01  0.2216E-01  0.5600E+02  0.5600E+02
     18.503  0.1715E-01  0.5608E-02  0.5600E+02  0.5600E+02
     18.577  0.4178E-02  0.1305E-02  0.5600E+02  0.5600E+02
     18.652  0.9627E-03  0.1661E-03  0.5600E+02  0.5600E+02
     18.726  0.0000E+00  0.0000E+00  0.5600E+02  0.5600E+02
     18.800  0.0000E+00  0.0000E+00  0.5600E+02  0.5600E+02
     18.874  0.0000E+00  0.0000E+00  0.5600E+02  0.5600E+02
     18.949  0.0000E+00  0.0000E+00  0.5600E+02  0.5600E+02
     19.023  0.0000E+00  0.0000E+00  0.5600E+02  0.5600E+02
     19.097  0.0000E+00  0.0000E+00  0.5600E+02  0.5600E+02
     19.171  0.0000E+00  0.0000E+00  0.5600E+02  0.5600E+02
     19.246  0.0000E+00  0.0000E+00  0.5600E+02  0.5600E+02
     19.320  0.0000E+00  0.0000E+00  0.5600E+02  0.5600E+02
     19.31982090     -2.95289295  301     10.76601791      1.00000000
     -2.953  0.0000E+00  0.0000E+00  0.0000E+00  0.0000E+00  0.0000E+00  0.0000E+00  0.0000E+00  0.0000E+00  0.0000E+00  0.0000E+00  0.0000E+00  0.0000E+00  0.0000E+00  0.0000E+00  0.0000E+00  0.0000E+00  0.0000E+00  0.0000E+00
     -2.879  0.0000E+00  0.0000E+00  0.0000E+00  0.0000E+00  0.0000E+00  0.0000E+00  0.0000E+00  0.0000E+00  0.0000E+00  0.0000E+00  0.0000E+00  0.0000E+00  0.0000E+00  0.0000E+00  0.0000E+00  0.0000E+00  0.0000E+00  0.0000E+00
     -2.804  0.0000E+00  0.0000E+00  0.0000E+00  0.0000E+00  0.0000E+00  0.0000E+00  0.0000E+00  0.0000E+00  0.0000E+00  0.0000E+00  0.0000E+00  0.0000E+00  0.0000E+00  0.0000E+00  0.0000E+00  0.0000E+00  0.0000E+00  0.0000E+00
     -2.730  0.0000E+00  0.0000E+00  0.0000E+00  0.0000E+00  0.0000E+00  0.0000E+00  0.0000E+00  0.0000E+00  0.0000E+00  0.0000E+00  0.0000E+00  0.0000E+00  0.0000E+00  0.0000E+00  0.0000E+00  0.0000E+00  0.0000E+00  0.0000E+00
     -2.656  0.0000E+00  0.0000E+00  0.0000E+00  0.0000E+00  0.0000E+00  0.0000E+00  0.0000E+00  0.0000E+00  0.0000E+00  0.0000E+00  0.0000E+00  0.0000E+00  0.0000E+00  0.0000E+00  0.0000E+00  0.0000E+00  0.0000E+00  0.0000E+00
     -2.582  0.0000E+00  0.0000E+00  0.0000E+00  0.0000E+00  0.0000E+00  0.0000E+00  0.0000E+00  0.0000E+00  0.0000E+00  0.0000E+00  0.0000E+00  0.0000E+00  0.0000E+00  0.0000E+00  0.0000E+00  0.0000E+00  0.0000E+00  0.0000E+00
     -2.507  0.0000E+00  0.0000E+00  0.0000E+00  0.0000E+00  0.0000E+00  0.0000E+00  0.0000E+00  0.0000E+00  0.0000E+00  0.0000E+00  0.0000E+00  0.0000E+00  0.0000E+00  0.0000E+00  0.0000E+00  0.0000E+00  0.0000E+00  0.0000E+00
     -2.433  0.0000E+00  0.0000E+00  0.0000E+00  0.0000E+00  0.0000E+00  0.0000E+00  0.0000E+00  0.0000E+00  0.0000E+00  0.0000E+00  0.0000E+00  0.0000E+00  0.0000E+00  0.0000E+00  0.0000E+00  0.0000E+00  0.0000E+00  0.0000E+00
     -2.359  0.1715E-06  0.1711E-06  0.5115E-22  0.7933E-22  0.1149E-10  0.1147E-10  0.5115E-22  0.7933E-22  0.7808E-20  0.1076E-18  0.2896E-18  0.2713E-17  0.2912E-11  0.2926E-11  0.2896E-18  0.2713E-17  0.5654E-17  0.1466E-15
     -2.285  0.1704E-05  0.1700E-05  0.2764E-08  0.2758E-08  0.2811E-08  0.2805E-08  0.2764E-08  0.2758E-08  0.7938E-18  0.2164E-16  0.2450E-14  0.3322E-14  0.4557E-10  0.4621E-10  0.2450E-14  0.3322E-14  0.1357E-10  0.1348E-10
     -2.210  0.8814E-05  0.8794E-05  0.2109E-07  0.2105E-07  0.2243E-07  0.2238E-07  0.2109E-07  0.2105E-07  0.9161E-10  0.9112E-10  0.8643E-10  0.8590E-10  0.2487E-09  0.2502E-09  0.8643E-10  0.8590E-10  0.7198E-10  0.7172E-10
     -2.136  0.3821E-04  0.3813E-04  0.9744E-07  0.9723E-07  0.1010E-06  0.1008E-06  0.9744E-07  0.9723E-07  0.4873E-09  0.4857E-09  0.4999E-09  0.4969E-09  0.1093E-08  0.1100E-08  0.4999E-09  0.4969E-09  0.3722E-09  0.3709E-09
     -2.062  0.1626E-03  0.1623E-03  0.4286E-06  0.4276E-06  0.4402E-06  0.4392E-06  0.4286E-06  0.4276E-06  0.2250E-08  0.2242E-08  0.2127E-08  0.2115E-08  0.4950E-08  0.4977E-08  0.2127E-08  0.2115E-08  0.1806E-08  0.1799E-08
     -1.988  0.6351E-03  0.6338E-03  0.1810E-05  0.1806E-05  0.1903E-05  0.1899E-05  0.1810E-05  0.1806E-05  0.1002E-07  0.9987E-08  0.9826E-08  0.9770E-08  0.2010E-07  0.2020E-07  0.9826E-08  0.9770E-08  0.7555E-08  0.7530E-08
     -1.913  0.1978E-02  0.1975E-02  0.6692E-05  0.6680E-05  0.7206E-05  0.7192E-05  0.6692E-05  0.6680E-05  0.4089E-07  0.4075E-07  0.4099E-07  0.4076E-07  0.6732E-07  0.6758E-07  0.4099E-07  0.4076E-07  0.2781E-07  0.2774E-07
     -1.839  0.4344E-02  0.4340E-02  0.1878E-04  0.1876E-04  0.2076E-04  0.2073E-04  0.1878E-04  0.1876E-04  0.1421E-06  0.1417E-06  0.1463E-06  0.1455E-06  0.1679E-06  0.1679E-06  0.1463E-06  0.1455E-06  0.8277E-07  0.8265E-07
     -1.765  0.6466E-02  0.6464E-02  0.3795E-04  0.3792E-04  0.4064E-04  0.4061E-04  0.3795E-04  0.3792E-04  0.3584E-06  0.3578E-06  0.3751E-06  0.3735E-06  0.3422E-06  0.3407E-06  0.3751E-06  0.3735E-06  0.2248E-06  0.2246E-06
     -1.691  0.7551E-02  0.7549E-02  0.6494E-04  0.6489E-04  0.6239E-04  0.6234E-04  0.6494E-04  0.6489E-04  0.7423E-06  0.7410E-06  0.7174E-06  0.7150E-06  0.7706E-06  0.7658E-06  0.7174E-06  0.7150E-06  0.6105E-06  0.6098E-06
     -1.617  0.9646E-02  0.9641E-02  0.1111E-03  0.1111E-03  0.1100E-03  0.1099E-03  0.1111E-03  0.1111E-03  0.1575E-05  0.1570E-05  0.1497E-05  0.1493E-05  0.1644E-05  0.1636E-05  0.1497E-05  0.1493E-05  0.1290E-05  0.1289E-05
     -1.542  0.1226E-01  0.1226E-01  0.1577E-03  0.1577E-03  0.1831E-03  0.1830E-03  0.1577E-03  0.1577E-03  0.2820E-05  0.2812E-05  0.2943E-05  0.2938E-05  0.2410E-05  0.2403E-05  0.2943E-05  0.2938E-05  0.1762E-05  0.1761E-05
     -1.468  0.1141E-01  0.1142E-01  0.1657E-03  0.1657E-03  0.2018E-03  0.2018E-03  0.1657E-03  0.1657E-03  0.3854E-05  0.3845E-05  0.3952E-05  0.3947E-05  0.2581E-05  0.2575E-05  0.3952E-05  0.3947E-05  0.1870E-05  0.1867E-05
     -1.394  0.1030E-01  0.1030E-01  0.1990E-03  0.1989E-03  0.1996E-03  0.1995E-03  0.1990E-03  0.1989E-03  0.5630E-05  0.5616E-05  0.5397E-05  0.5389E-05  0.3349E-05  0.3336E-05  0.5397E-05  0.5389E-05  0.3160E-05  0.3152E-05
     -1.320  0.1346E-01  0.1346E-01  0.3185E-03  0.3182E-03  0.2815E-03  0.2813E-03  0.3185E-03  0.3182E-03  0.8835E-05  0.8818E-05  0.9173E-05  0.9160E-05  0.5984E-05  0.5959E-05  0.9173E-05  0.9160E-05  0.6903E-05  0.6887E-05
     -1.245  0.1590E-01  0.1590E-01  0.4069E-03  0.4068E-03  0.3757E-03  0.3756E-03  0.4069E-03  0.4068E-03  0.1108E-04  0.1106E-04  0.1169E-04  0.1168E-04  0.1004E-04  0.1000E-04  0.1169E-04  0.1168E-04  0.1067E-04  0.1065E-04
     -1.171  0.1507E-01  0.1507E-01  0.3970E-03  0.3970E-03  0.4567E-03  0.4565E-03  0.3970E-03  0.3970E-03  0.1344E-04  0.1343E-04  0.1295E-04  0.1293E-04  0.1374E-04  0.1372E-04  0.1295E-04  0.1293E-04  0.1055E-04  0.1054E-04
     -1.097  0.1454E-01  0.1454E-01  0.4138E-03  0.4137E-03  0.5293E-03  0.5291E-03  0.4138E-03  0.4137E-03  0.2047E-04  0.2045E-04  0.1788E-04  0.1785E-04  0.1530E-04  0.1529E-04  0.1788E-04  0.1785E-04  0.9009E-05  0.9002E-05
     -1.023  0.1604E-01  0.1604E-01  0.5293E-03  0.5291E-03  0.5933E-03  0.5931E-03  0.5293E-03  0.5291E-03  0.2939E-04  0.2936E-04  0.2749E-04  0.2744E-04  0.1591E-04  0.1590E-04  0.2749E-04  0.2744E-04  0.1189E-04  0.1188E-04
     -0.948  0.1699E-01  0.1699E-01  0.5954E-03  0.5954E-03  0.6957E-03  0.6956E-03  0.5954E-03  0.5954E-03  0.2985E-04  0.2983E-04  0.3638E-04  0.3634E-04  0.1770E-04  0.1769E-04  0.3638E-04  0.3634E-04  0.1710E-04  0.1708E-04
     -0.874  0.1509E-01  0.1509E-01  0.5931E-03  0.5929E-03  0.6344E-03  0.6346E-03  0.5931E-03  0.5929E-03  0.2639E-04  0.2637E-04  0.3470E-04  0.3469E-04  0.2044E-04  0.2043E-04  0.3470E-04  0.3469E-04  0.2457E-04  0.2454E-04
     -0.800  0.1555E-01  0.1555E-01  0.7617E-03  0.7613E-03  0.5460E-03  0.5459E-03  0.7617E-03  0.7613E-03  0.4040E-04  0.4036E-04  0.3600E-04  0.3598E-04  0.2724E-04  0.2721E-04  0.3600E-04  0.3598E-04  0.3694E-04  0.3691E-04
     -0.726  0.1839E-01  0.1838E-01  0.9419E-03  0.9418E-03  0.7449E-03  0.7444E-03  0.9419E-03  0.9418E-03  0.6289E-04  0.6287E-04  0.4926E-04  0.4925E-04  0.4007E-04  0.4003E-04  0.4926E-04  0.4925E-04  0.4193E-04  0.4192E-04
     -0.651  0.1958E-01  0.1958E-01  0.9554E-03  0.9553E-03  0.1098E-02  0.1097E-02  0.9554E-03  0.9553E-03  0.7228E-04  0.7227E-04  0.6495E-04  0.6495E-04  0.5520E-04  0.5515E-04  0.6495E-04  0.6495E-04  0.4019E-04  0.4016E-04
     -0.577  0.2058E-01  0.2058E-01  0.1028E-02  0.1028E-02  0.1317E-02  0.1317E-02  0.1028E-02  0.1028E-02  0.7769E-04  0.7769E-04  0.8413E-04  0.8413E-04  0.6297E-04  0.6294E-04  0.8413E-04  0.8413E-04  0.4771E-04  0.4768E-04
     -0.503  0.1912E-01  0.1912E-01  0.1024E-02  0.1024E-02  0.1256E-02  0.1256E-02  0.1024E-02  0.1024E-02  0.8139E-04  0.8142E-04  0.9397E-04  0.9399E-04  0.5765E-04  0.5764E-04  0.9397E-04  0.9399E-04  0.4906E-04  0.4907E-04
     -0.429  0.1695E-01  0.1695E-01  0.9020E-03  0.9020E-03  0.1333E-02  0.1333E-02  0.9020E-03  0.9020E-03  0.8540E-04  0.8540E-04  0.1052E-03  0.1053E-03  0.5765E-04  0.5765E-04  0.1052E-03  0.1053E-03  0.3707E-04  0.3710E-04
     -0.354  0.1675E-01  0.1675E-01  0.9930E-03  0.9926E-03  0.1325E-02  0.1326E-02  0.9930E-03  0.9926E-03  0.1101E-03  0.1100E-03  0.1123E-03  0.1124E-03  0.6542E-04  0.6543E-04  0.1123E-03  0.1124E-03  0.4412E-04  0.4412E-04
     -0.280  0.1750E-01  0.1750E-01  0.1334E-02  0.1333E-02  0.1009E-02  0.1009E-02  0.1334E-02  0.1333E-02  0.1515E-03  0.1514E-03  0.1061E-03  0.1062E-03  0.7614E-04  0.7613E-04  0.1061E-03  0.1062E-03  0.8206E-04  0.8207E-04
     -0.206  0.2002E-01  0.2002E-01  0.1676E-02  0.1676E-02  0.1118E-02  0.1117E-02  0.1676E-02  0.1676E-02  0.1675E-03  0.1675E-03  0.1381E-03  0.1381E-03  0.9375E-04  0.9376E-04  0.1381E-03  0.1381E-03  0.1268E-03  0.1269E-03
     -0.132  0.2118E-01  0.2118E-01  0.1708E-02  0.1708E-02  0.1580E-02  0.1579E-02  0.1708E-02  0.1708E-02  0.1529E-03  0.1529E-03  0.1958E-03  0.1958E-03  0.1024E-03  0.1025E-03  0.1958E-03  0.1958E-03  0.1373E-03  0.1375E-03
     -0.057  0.2116E-01  0.2116E-01  0.1692E-02  0.1691E-02  0.1935E-02  0.1935E-02  0.1692E-02  0.1691E-02  0.1838E-03  0.1838E-03  0.2274E-03  0.2274E-03  0.1212E-03  0.1214E-03  0.2274E-03  0.2274E-03  0.1270E-03  0.1271E-03
      0.017  0.2255E-01  0.2255E-01  0.1927E-02  0.1927E-02  0.2170E-02  0.2170E-02  0.1927E-02  0.1927E-02  0.2499E-03  0.2500E-03  0.2448E-03  0.2449E-03  0.1577E-03  0.1579E-03  0.2448E-03  0.2449E-03  0.1431E-03  0.1433E-03
      0.091  0.2079E-01  0.2080E-01  0.1785E-02  0.1785E-02  0.2253E-02  0.2254E-02  0.1785E-02  0.1785E-02  0.2490E-03  0.2492E-03  0.2481E-03  0.2483E-03  0.1673E-03  0.1675E-03  0.2481E-03  0.2483E-03  0.1307E-03  0.1308E-03
      0.165  0.1614E-01  0.1615E-01  0.1374E-02  0.1374E-02  0.2052E-02  0.2052E-02  0.1374E-02  0.1374E-02  0.2449E-03  0.2450E-03  0.2186E-03  0.2187E-03  0.1601E-03  0.1603E-03  0.2186E-03  0.2187E-03  0.8504E-04  0.8512E-04
      0.240  0.1617E-01  0.1617E-01  0.1513E-02  0.1513E-02  0.2156E-02  0.2155E-02  0.1513E-02  0.1513E-02  0.3217E-03  0.3217E-03  0.2430E-03  0.2430E-03  0.1896E-03  0.1898E-03  0.2430E-03  0.2430E-03  0.9200E-04  0.9196E-04
      0.314  0.1958E-01  0.1957E-01  0.2040E-02  0.2039E-02  0.2468E-02  0.2467E-02  0.2040E-02  0.2039E-02  0.4063E-03  0.4064E-03  0.3611E-03  0.3610E-03  0.2058E-03  0.2061E-03  0.3611E-03  0.3610E-03  0.1469E-03  0.1469E-03
      0.388  0.2223E-01  0.2222E-01  0.2575E-02  0.2575E-02  0.2600E-02  0.2600E-02  0.2575E-02  0.2575E-02  0.4340E-03  0.4342E-03  0.4922E-03  0.4922E-03  0.1928E-03  0.1930E-03  0.4922E-03  0.4922E-03  0.2248E-03  0.2248E-03
      0.462  0.2182E-01  0.2183E-01  0.2769E-02  0.2769E-02  0.2695E-02  0.2695E-02  0.2769E-02  0.2769E-02  0.3929E-03  0.3931E-03  0.5208E-03  0.5210E-03  0.2129E-03  0.2130E-03  0.5208E-03  0.5210E-03  0.2883E-03  0.2883E-03
      0.536  0.2035E-01  0.2036E-01  0.2744E-02  0.2744E-02  0.2988E-02  0.2987E-02  0.2744E-02  0.2744E-02  0.4039E-03  0.4040E-03  0.5306E-03  0.5307E-03  0.2425E-03  0.2427E-03  0.5306E-03  0.5307E-03  0.2982E-03  0.2984E-03
      0.611  0.1882E-01  0.1882E-01  0.2744E-02  0.2743E-02  0.3225E-02  0.3225E-02  0.2744E-02  0.2743E-02  0.4866E-03  0.4868E-03  0.5352E-03  0.5355E-03  0.2412E-03  0.2414E-03  0.5352E-03  0.5355E-03  0.2838E-03  0.2839E-03
      0.685  0.1647E-01  0.1647E-01  0.2882E-02  0.2882E-02  0.2909E-02  0.2910E-02  0.2882E-02  0.2882E-02  0.6066E-03  0.6066E-03  0.4598E-03  0.4600E-03  0.2405E-03  0.2407E-03  0.4598E-03  0.4600E-03  0.2918E-03  0.2920E-03
      0.759  0.1606E-01  0.1606E-01  0.2987E-02  0.2988E-02  0.2966E-02  0.2965E-02  0.2987E-02  0.2988E-02  0.7731E-03  0.7734E-03  0.5225E-03  0.5223E-03  0.2537E-03  0.2540E-03  0.5225E-03  0.5223E-03  0.2625E-03  0.2628E-03