  16  16   1   0
  0.1566150E+02  0.3968091E-09  0.3968091E-09  0.1591440E-08  0.5000000E-15
  1.000000000000000E-004
  CAR 
 unknown system                          
     14.87585320     -3.87149611  301      7.81798940      1.00000000
     -3.871  0.0000E+00  0.0000E+00  0.0000E+00  0.0000E+00
     -3.809  0.0000E+00  0.0000E+00  0.0000E+00  0.0000E+00
     -3.747  0.0000E+00  0.0000E+00  0.0000E+00  0.0000E+00
     -3.684  0.0000E+00  0.0000E+00  0.0000E+00  0.0000E+00
     -3.622  0.0000E+00  0.0000E+00  0.0000E+00  0.0000E+00
     -3.559  0.0000E+00  0.0000E+00  0.0000E+00  0.0000E+00
     -3.497  0.0000E+00  0.0000E+00  0.0000E+00  0.0000E+00
     -3.434  0.7887E-05  0.7877E-05  0.4929E-06  0.4922E-06
     -3.372  0.7062E-04  0.7053E-04  0.4906E-05  0.4900E-05
     -3.309  0.3048E-03  0.3044E-03  0.2395E-04  0.2392E-04
     -3.247  0.1044E-02  0.1043E-02  0.8920E-04  0.8908E-04
     -3.184  0.3581E-02  0.3577E-02  0.3130E-03  0.3126E-03
     -3.122  0.1203E-01  0.1201E-01  0.1064E-02  0.1063E-02
     -3.059  0.3694E-01  0.3690E-01  0.3373E-02  0.3369E-02
     -2.997  0.9506E-01  0.9498E-01  0.9313E-02  0.9305E-02
     -2.934  0.1869E+00  0.1868E+00  0.2099E-01  0.2098E-01
     -2.872  0.2740E+00  0.2740E+00  0.3812E-01  0.3810E-01
     -2.809  0.3379E+00  0.3378E+00  0.5923E-01  0.5921E-01
     -2.747  0.4277E+00  0.4276E+00  0.8596E-01  0.8593E-01
     -2.684  0.5195E+00  0.5194E+00  0.1184E+00  0.1184E+00
     -2.622  0.5137E+00  0.5137E+00  0.1505E+00  0.1505E+00
     -2.559  0.5031E+00  0.5031E+00  0.1820E+00  0.1819E+00
     -2.497  0.6130E+00  0.6129E+00  0.2203E+00  0.2203E+00
     -2.434  0.7118E+00  0.7118E+00  0.2648E+00  0.2648E+00
     -2.372  0.7105E+00  0.7105E+00  0.3092E+00  0.3092E+00
     -2.309  0.7070E+00  0.7070E+00  0.3534E+00  0.3534E+00
     -2.247  0.7635E+00  0.7634E+00  0.4012E+00  0.4011E+00
     -2.184  0.8052E+00  0.8052E+00  0.4515E+00  0.4514E+00
     -2.122  0.7662E+00  0.7662E+00  0.4994E+00  0.4993E+00
     -2.059  0.7927E+00  0.7926E+00  0.5490E+00  0.5489E+00
     -1.997  0.9102E+00  0.9100E+00  0.6059E+00  0.6058E+00
     -1.934  0.9926E+00  0.9925E+00  0.6679E+00  0.6679E+00
     -1.872  0.1041E+01  0.1041E+01  0.7330E+00  0.7329E+00
     -1.809  0.1003E+01  0.1003E+01  0.7957E+00  0.7957E+00
     -1.747  0.9270E+00  0.9270E+00  0.8537E+00  0.8536E+00
     -1.684  0.9179E+00  0.9179E+00  0.9111E+00  0.9110E+00
     -1.622  0.9692E+00  0.9691E+00  0.9717E+00  0.9716E+00
     -1.559  0.1091E+01  0.1091E+01  0.1040E+01  0.1040E+01
     -1.497  0.1185E+01  0.1185E+01  0.1114E+01  0.1114E+01
     -1.434  0.1228E+01  0.1228E+01  0.1191E+01  0.1191E+01
     -1.372  0.1295E+01  0.1295E+01  0.1272E+01  0.1272E+01
     -1.309  0.1245E+01  0.1245E+01  0.1350E+01  0.1350E+01
     -1.247  0.1066E+01  0.1066E+01  0.1416E+01  0.1416E+01
     -1.184  0.1049E+01  0.1049E+01  0.1482E+01  0.1482E+01
     -1.122  0.1218E+01  0.1218E+01  0.1558E+01  0.1558E+01
     -1.059  0.1410E+01  0.1409E+01  0.1646E+01  0.1646E+01
     -0.997  0.1498E+01  0.1498E+01  0.1740E+01  0.1740E+01
     -0.934  0.1489E+01  0.1489E+01  0.1833E+01  0.1833E+01
     -0.872  0.1462E+01  0.1462E+01  0.1924E+01  0.1924E+01
     -0.809  0.1386E+01  0.1386E+01  0.2011E+01  0.2011E+01
     -0.747  0.1352E+01  0.1351E+01  0.2096E+01  0.2095E+01
     -0.684  0.1388E+01  0.1388E+01  0.2182E+01  0.2182E+01
     -0.622  0.1509E+01  0.1509E+01  0.2277E+01  0.2276E+01
     -0.559  0.1583E+01  0.1583E+01  0.2376E+01  0.2375E+01
     -0.497  0.1474E+01  0.1475E+01  0.2468E+01  0.2468E+01
     -0.434  0.1311E+01  0.1312E+01  0.2550E+01  0.2550E+01
     -0.372  0.1218E+01  0.1218E+01  0.2626E+01  0.2626E+01
     -0.309  0.1242E+01  0.1242E+01  0.2704E+01  0.2704E+01
     -0.247  0.1392E+01  0.1392E+01  0.2791E+01  0.2791E+01
     -0.185  0.1555E+01  0.1555E+01  0.2888E+01  0.2888E+01
     -0.122  0.1686E+01  0.1686E+01  0.2993E+01  0.2993E+01
     -0.060  0.1678E+01  0.1678E+01  0.3098E+01  0.3098E+01
      0.003  0.1486E+01  0.1487E+01  0.3191E+01  0.3191E+01
      0.065  0.1398E+01  0.1398E+01  0.3279E+01  0.3279E+01
      0.128  0.1508E+01  0.1508E+01  0.3373E+01  0.3373E+01
      0.190  0.1597E+01  0.1597E+01  0.3473E+01  0.3473E+01
      0.253  0.1676E+01  0.1676E+01  0.3578E+01  0.3578E+01
      0.315  0.1759E+01  0.1759E+01  0.3688E+01  0.3688E+01
      0.378  0.1689E+01  0.1689E+01  0.3793E+01  0.3793E+01
      0.440  0.1559E+01  0.1559E+01  0.3891E+01  0.3891E+01
      0.503  0.1540E+01  0.1540E+01  0.3987E+01  0.3987E+01
      0.565  0.1683E+01  0.1683E+01  0.4092E+01  0.4092E+01
      0.628  0.1902E+01  0.1901E+01  0.4211E+01  0.4211E+01
      0.690  0.2095E+01  0.2095E+01  0.4342E+01  0.4342E+01
      0.753  0.2131E+01  0.2131E+01  0.4475E+01  0.4475E+01
      0.815  0.1949E+01  0.1949E+01  0.4597E+01  0.4597E+01
      0.878  0.1753E+01  0.1753E+01  0.4707E+01  0.4707E+01
      0.940  0.1743E+01  0.1743E+01  0.4816E+01  0.4816E+01
      1.003  0.1817E+01  0.1817E+01  0.4929E+01  0.4929E+01
      1.065  0.1846E+01  0.1846E+01  0.5045E+01  0.5045E+01
      1.128  0.1914E+01  0.1914E+01  0.5165E+01  0.5165E+01
      1.190  0.1914E+01  0.1914E+01  0.5284E+01  0.5284E+01
      1.253  0.1858E+01  0.1859E+01  0.5401E+01  0.5400E+01
      1.315  0.1973E+01  0.1973E+01  0.5524E+01  0.5524E+01
      1.378  0.2182E+01  0.2181E+01  0.5660E+01  0.5660E+01
      1.440  0.2257E+01  0.2257E+01  0.5801E+01  0.5801E+01
      1.503  0.2140E+01  0.2140E+01  0.5935E+01  0.5935E+01
      1.565  0.1997E+01  0.1998E+01  0.6060E+01  0.6060E+01
      1.628  0.1955E+01  0.1956E+01  0.6182E+01  0.6182E+01
      1.690  0.2082E+01  0.2083E+01  0.6313E+01  0.6313E+01
      1.753  0.2242E+01  0.2242E+01  0.6453E+01  0.6453E+01
      1.815  0.2429E+01  0.2428E+01  0.6605E+01  0.6605E+01
      1.878  0.2531E+01  0.2531E+01  0.6763E+01  0.6763E+01
      1.940  0.2337E+01  0.2338E+01  0.6909E+01  0.6909E+01
      2.003  0.2075E+01  0.2075E+01  0.7039E+01  0.7039E+01
      2.065  0.2068E+01  0.2068E+01  0.7168E+01  0.7168E+01
      2.128  0.2181E+01  0.2181E+01  0.7304E+01  0.7304E+01
      2.190  0.2287E+01  0.2287E+01  0.7447E+01  0.7447E+01
      2.253  0.2540E+01  0.2540E+01  0.7606E+01  0.7606E+01
      2.315  0.2761E+01  0.2762E+01  0.7779E+01  0.7779E+01
      2.378  0.2785E+01  0.2785E+01  0.7953E+01  0.7953E+01
      2.440  0.2777E+01  0.2778E+01  0.8127E+01  0.8127E+01
      2.503  0.2734E+01  0.2734E+01  0.8298E+01  0.8298E+01
      2.565  0.2657E+01  0.2657E+01  0.8464E+01  0.8464E+01
      2.628  0.2683E+01  0.2683E+01  0.8632E+01  0.8632E+01
      2.690  0.2851E+01  0.2852E+01  0.8810E+01  0.8810E+01
      2.753  0.3037E+01  0.3038E+01  0.9000E+01  0.9000E+01
      2.815  0.3088E+01  0.3088E+01  0.9193E+01  0.9193E+01
      2.878  0.2872E+01  0.2872E+01  0.9372E+01  0.9373E+01
      2.940  0.2698E+01  0.2698E+01  0.9541E+01  0.9541E+01
      3.003  0.2877E+01  0.2878E+01  0.9721E+01  0.9721E+01
      3.065  0.3217E+01  0.3218E+01  0.9922E+01  0.9923E+01
      3.128  0.3270E+01  0.3270E+01  0.1013E+02  0.1013E+02
      3.190  0.3307E+01  0.3308E+01  0.1033E+02  0.1033E+02
      3.252  0.3617E+01  0.3618E+01  0.1056E+02  0.1056E+02
      3.315  0.3863E+01  0.3864E+01  0.1080E+02  0.1080E+02
      3.377  0.3951E+01  0.3952E+01  0.1105E+02  0.1105E+02
      3.440  0.4225E+01  0.4227E+01  0.1131E+02  0.1131E+02
      3.502  0.4577E+01  0.4578E+01  0.1160E+02  0.1160E+02
      3.565  0.4705E+01  0.4706E+01  0.1189E+02  0.1189E+02
      3.627  0.5083E+01  0.5086E+01  0.1221E+02  0.1221E+02
      3.690  0.5947E+01  0.5952E+01  0.1258E+02  0.1258E+02
      3.752  0.6918E+01  0.6922E+01  0.1301E+02  0.1302E+02
      3.815  0.7677E+01  0.7682E+01  0.1349E+02  0.1350E+02
      3.877  0.8786E+01  0.8794E+01  0.1404E+02  0.1405E+02
      3.940  0.1085E+02  0.1086E+02  0.1472E+02  0.1473E+02
      4.002  0.1377E+02  0.1379E+02  0.1558E+02  0.1559E+02
      4.065  0.1686E+02  0.1688E+02  0.1664E+02  0.1664E+02
      4.127  0.1895E+02  0.1897E+02  0.1782E+02  0.1783E+02
      4.190  0.1973E+02  0.1974E+02  0.1905E+02  0.1906E+02
      4.252  0.2047E+02  0.2049E+02  0.2033E+02  0.2034E+02
      4.315  0.2224E+02  0.2226E+02  0.2172E+02  0.2173E+02
      4.377  0.2363E+02  0.2363E+02  0.2320E+02  0.2321E+02
      4.440  0.2141E+02  0.2137E+02  0.2454E+02  0.2455E+02
      4.502  0.1552E+02  0.1547E+02  0.2551E+02  0.2551E+02
      4.565  0.1115E+02  0.1112E+02  0.2621E+02  0.2621E+02
      4.627  0.1203E+02  0.1203E+02  0.2696E+02  0.2696E+02
      4.690  0.1375E+02  0.1375E+02  0.2782E+02  0.2782E+02
      4.752  0.1206E+02  0.1205E+02  0.2857E+02  0.2858E+02
      4.815  0.9200E+01  0.9191E+01  0.2915E+02  0.2915E+02
      4.877  0.7233E+01  0.7227E+01  0.2960E+02  0.2961E+02
      4.940  0.6249E+01  0.6246E+01  0.2999E+02  0.3000E+02
      5.002  0.5790E+01  0.5788E+01  0.3036E+02  0.3036E+02
      5.065  0.5336E+01  0.5334E+01  0.3069E+02  0.3069E+02
      5.127  0.5003E+01  0.5002E+01  0.3100E+02  0.3101E+02
      5.190  0.5028E+01  0.5027E+01  0.3132E+02  0.3132E+02
      5.252  0.5087E+01  0.5085E+01  0.3164E+02  0.3164E+02
      5.315  0.4744E+01  0.4742E+01  0.3193E+02  0.3193E+02
      5.377  0.4126E+01  0.4123E+01  0.3219E+02  0.3219E+02
      5.440  0.3563E+01  0.3560E+01  0.3241E+02  0.3241E+02
      5.502  0.3300E+01  0.3299E+01  0.3262E+02  0.3262E+02
      5.565  0.3352E+01  0.3352E+01  0.3283E+02  0.3283E+02
      5.627  0.3451E+01  0.3451E+01  0.3305E+02  0.3305E+02
      5.690  0.3199E+01  0.3197E+01  0.3325E+02  0.3325E+02
      5.752  0.2929E+01  0.2928E+01  0.3343E+02  0.3343E+02
      5.815  0.3000E+01  0.3001E+01  0.3362E+02  0.3362E+02
      5.877  0.3189E+01  0.3190E+01  0.3382E+02  0.3382E+02
      5.940  0.3456E+01  0.3456E+01  0.3403E+02  0.3403E+02
      6.002  0.3614E+01  0.3615E+01  0.3426E+02  0.3426E+02
      6.065  0.3493E+01  0.3493E+01  0.3448E+02  0.3448E+02
      6.127  0.3308E+01  0.3308E+01  0.3468E+02  0.3468E+02
      6.190  0.3492E+01  0.3492E+01  0.3490E+02  0.3490E+02
      6.252  0.3877E+01  0.3877E+01  0.3514E+02  0.3515E+02
      6.315  0.3917E+01  0.3916E+01  0.3539E+02  0.3539E+02
      6.377  0.3736E+01  0.3736E+01  0.3562E+02  0.3562E+02
      6.440  0.3586E+01  0.3586E+01  0.3585E+02  0.3585E+02
      6.502  0.3477E+01  0.3476E+01  0.3606E+02  0.3607E+02
      6.565  0.3422E+01  0.3422E+01  0.3628E+02  0.3628E+02
      6.627  0.3320E+01  0.3320E+01  0.3649E+02  0.3649E+02
      6.690  0.3239E+01  0.3239E+01  0.3669E+02  0.3669E+02
      6.752  0.3283E+01  0.3283E+01  0.3689E+02  0.3689E+02
      6.814  0.3181E+01  0.3181E+01  0.3709E+02  0.3709E+02
      6.877  0.2989E+01  0.2989E+01  0.3728E+02  0.3728E+02
      6.939  0.2739E+01  0.2739E+01  0.3745E+02  0.3745E+02
      7.002  0.2583E+01  0.2583E+01  0.3761E+02  0.3761E+02
      7.064  0.2814E+01  0.2814E+01  0.3779E+02  0.3779E+02
      7.127  0.3192E+01  0.3192E+01  0.3799E+02  0.3799E+02
      7.189  0.3225E+01  0.3225E+01  0.3819E+02  0.3819E+02
      7.252  0.3052E+01  0.3052E+01  0.3838E+02  0.3838E+02
      7.314  0.3124E+01  0.3123E+01  0.3858E+02  0.3858E+02
      7.377  0.3143E+01  0.3143E+01  0.3877E+02  0.3877E+02
      7.439  0.2864E+01  0.2863E+01  0.3895E+02  0.3895E+02
      7.502  0.2625E+01  0.2625E+01  0.3912E+02  0.3912E+02
      7.564  0.2675E+01  0.2675E+01  0.3928E+02  0.3928E+02
      7.627  0.2853E+01  0.2854E+01  0.3946E+02  0.3946E+02
      7.689  0.2993E+01  0.2993E+01  0.3965E+02  0.3965E+02
      7.752  0.2865E+01  0.2864E+01  0.3983E+02  0.3983E+02
      7.814  0.2596E+01  0.2596E+01  0.3999E+02  0.3999E+02
      7.877  0.2597E+01  0.2597E+01  0.4015E+02  0.4015E+02
      7.939  0.2829E+01  0.2829E+01  0.4033E+02  0.4033E+02
      8.002  0.2992E+01  0.2992E+01  0.4052E+02  0.4052E+02
      8.064  0.3030E+01  0.3029E+01  0.4071E+02  0.4071E+02
      8.127  0.3046E+01  0.3046E+01  0.4090E+02  0.4090E+02
      8.189  0.3141E+01  0.3141E+01  0.4109E+02  0.4109E+02
      8.252  0.3172E+01  0.3171E+01  0.4129E+02  0.4129E+02
      8.314  0.2995E+01  0.2994E+01  0.4148E+02  0.4148E+02
      8.377  0.2766E+01  0.2766E+01  0.4165E+02  0.4165E+02
      8.439  0.2775E+01  0.2774E+01  0.4183E+02  0.4183E+02
      8.502  0.3063E+01  0.3063E+01  0.4202E+02  0.4202E+02
      8.564  0.3233E+01  0.3233E+01  0.4222E+02  0.4222E+02
      8.627  0.3198E+01  0.3197E+01  0.4242E+02  0.4242E+02
      8.689  0.3071E+01  0.3071E+01  0.4261E+02  0.4261E+02
      8.752  0.3033E+01  0.3032E+01  0.4280E+02  0.4280E+02
      8.814  0.3268E+01  0.3268E+01  0.4301E+02  0.4301E+02
      8.877  0.3629E+01  0.3629E+01  0.4323E+02  0.4323E+02
      8.939  0.3799E+01  0.3798E+01  0.4347E+02  0.4347E+02
      9.002  0.3689E+01  0.3689E+01  0.4370E+02  0.4370E+02
      9.064  0.3518E+01  0.3518E+01  0.4392E+02  0.4392E+02
      9.127  0.3343E+01  0.3343E+01  0.4413E+02  0.4413E+02
      9.189  0.3320E+01  0.3320E+01  0.4434E+02  0.4434E+02
      9.252  0.3312E+01  0.3312E+01  0.4454E+02  0.4454E+02
      9.314  0.3049E+01  0.3050E+01  0.4473E+02  0.4473E+02
      9.377  0.2620E+01  0.2621E+01  0.4490E+02  0.4490E+02
      9.439  0.2367E+01  0.2368E+01  0.4505E+02  0.4505E+02
      9.502  0.2539E+01  0.2539E+01  0.4521E+02  0.4521E+02
      9.564  0.3182E+01  0.3181E+01  0.4540E+02  0.4540E+02
      9.627  0.3838E+01  0.3838E+01  0.4564E+02  0.4564E+02
      9.689  0.3999E+01  0.3998E+01  0.4589E+02  0.4589E+02
      9.752  0.3740E+01  0.3740E+01  0.4613E+02  0.4613E+02
      9.814  0.3565E+01  0.3565E+01  0.4635E+02  0.4635E+02
      9.877  0.3470E+01  0.3470E+01  0.4657E+02  0.4657E+02
      9.939  0.3379E+01  0.3379E+01  0.4678E+02  0.4678E+02
     10.002  0.3415E+01  0.3415E+01  0.4699E+02  0.4699E+02
     10.064  0.3541E+01  0.3541E+01  0.4721E+02  0.4721E+02
     10.127  0.3414E+01  0.3414E+01  0.4743E+02  0.4743E+02
     10.189  0.3208E+01  0.3208E+01  0.4763E+02  0.4763E+02
     10.252  0.3357E+01  0.3357E+01  0.4784E+02  0.4784E+02
     10.314  0.3483E+01  0.3483E+01  0.4806E+02  0.4806E+02
     10.376  0.3290E+01  0.3290E+01  0.4826E+02  0.4826E+02
     10.439  0.3199E+01  0.3199E+01  0.4846E+02  0.4846E+02
     10.501  0.3374E+01  0.3375E+01  0.4867E+02  0.4867E+02
     10.564  0.3680E+01  0.3680E+01  0.4890E+02  0.4890E+02
     10.626  0.3912E+01  0.3912E+01  0.4915E+02  0.4915E+02
     10.689  0.3835E+01  0.3835E+01  0.4939E+02  0.4939E+02
     10.751  0.3574E+01  0.3573E+01  0.4961E+02  0.4961E+02
     10.814  0.3389E+01  0.3389E+01  0.4982E+02  0.4982E+02
     10.876  0.3148E+01  0.3149E+01  0.5002E+02  0.5002E+02
     10.939  0.2964E+01  0.2965E+01  0.5021E+02  0.5021E+02
     11.001  0.2930E+01  0.2930E+01  0.5039E+02  0.5039E+02
     11.064  0.2867E+01  0.2867E+01  0.5057E+02  0.5057E+02
     11.126  0.2959E+01  0.2958E+01  0.5075E+02  0.5075E+02
     11.189  0.3231E+01  0.3231E+01  0.5095E+02  0.5095E+02
     11.251  0.3400E+01  0.3400E+01  0.5117E+02  0.5117E+02
     11.314  0.3539E+01  0.3538E+01  0.5139E+02  0.5139E+02
     11.376  0.3587E+01  0.3586E+01  0.5161E+02  0.5161E+02
     11.439  0.3453E+01  0.3458E+01  0.5183E+02  0.5183E+02
     11.501  0.3524E+01  0.3535E+01  0.5205E+02  0.5205E+02
     11.564  0.3868E+01  0.3878E+01  0.5229E+02  0.5229E+02
     11.626  0.4255E+01  0.4270E+01  0.5256E+02  0.5256E+02
     11.689  0.4452E+01  0.4460E+01  0.5284E+02  0.5284E+02
     11.751  0.4173E+01  0.4148E+01  0.5310E+02  0.5310E+02
     11.814  0.3659E+01  0.3609E+01  0.5333E+02  0.5332E+02
     11.876  0.3378E+01  0.3389E+01  0.5354E+02  0.5354E+02
     11.939  0.3197E+01  0.3312E+01  0.5374E+02  0.5374E+02
     12.001  0.2974E+01  0.3064E+01  0.5392E+02  0.5393E+02
     12.064  0.2879E+01  0.2897E+01  0.5410E+02  0.5412E+02
     12.126  0.2643E+01  0.2648E+01  0.5427E+02  0.5428E+02
     12.189  0.2227E+01  0.2251E+01  0.5441E+02  0.5442E+02
     12.251  0.1879E+01  0.1920E+01  0.5452E+02  0.5454E+02
     12.314  0.1746E+01  0.1734E+01  0.5463E+02  0.5465E+02
     12.376  0.1772E+01  0.1724E+01  0.5474E+02  0.5476E+02
     12.439  0.1874E+01  0.1811E+01  0.5486E+02  0.5487E+02
     12.501  0.1885E+01  0.1805E+01  0.5498E+02  0.5498E+02
     12.564  0.1872E+01  0.1814E+01  0.5510E+02  0.5510E+02
     12.626  0.1867E+01  0.1846E+01  0.5521E+02  0.5521E+02
     12.689  0.1653E+01  0.1644E+01  0.5532E+02  0.5532E+02
     12.751  0.1309E+01  0.1295E+01  0.5540E+02  0.5540E+02
     12.814  0.9823E+00  0.9921E+00  0.5546E+02  0.5546E+02
     12.876  0.7752E+00  0.8070E+00  0.5551E+02  0.5551E+02
     12.939  0.7267E+00  0.7580E+00  0.5555E+02  0.5556E+02
     13.001  0.7791E+00  0.8076E+00  0.5560E+02  0.5561E+02
     13.064  0.7568E+00  0.7709E+00  0.5565E+02  0.5566E+02
     13.126  0.5962E+00  0.5755E+00  0.5569E+02  0.5569E+02
     13.189  0.4371E+00  0.4015E+00  0.5572E+02  0.5572E+02
     13.251  0.4221E+00  0.4017E+00  0.5574E+02  0.5574E+02
     13.314  0.5015E+00  0.4938E+00  0.5577E+02  0.5577E+02
     13.376  0.5134E+00  0.5087E+00  0.5581E+02  0.5580E+02
     13.439  0.4538E+00  0.4484E+00  0.5583E+02  0.5583E+02
     13.501  0.3710E+00  0.3686E+00  0.5586E+02  0.5586E+02
     13.564  0.2860E+00  0.2965E+00  0.5587E+02  0.5587E+02
     13.626  0.2728E+00  0.2866E+00  0.5589E+02  0.5589E+02
     13.689  0.3016E+00  0.3011E+00  0.5591E+02  0.5591E+02
     13.751  0.3207E+00  0.3156E+00  0.5593E+02  0.5593E+02
     13.814  0.3261E+00  0.3316E+00  0.5595E+02  0.5595E+02
     13.876  0.2583E+00  0.2570E+00  0.5597E+02  0.5597E+02
     13.938  0.1641E+00  0.1611E+00  0.5598E+02  0.5598E+02
     14.001  0.1389E+00  0.1385E+00  0.5599E+02  0.5599E+02
     14.063  0.1205E+00  0.1176E+00  0.5599E+02  0.5599E+02
     14.126  0.6603E-01  0.6270E-01  0.5600E+02  0.5600E+02
     14.188  0.2461E-01  0.2286E-01  0.5600E+02  0.5600E+02
     14.251  0.7424E-02  0.6909E-02  0.5600E+02  0.5600E+02
     14.313  0.2185E-02  0.2030E-02  0.5600E+02  0.5600E+02
     14.376  0.6311E-03  0.5860E-03  0.5600E+02  0.5600E+02
     14.438  0.0000E+00  0.0000E+00  0.5600E+02  0.5600E+02
     14.501  0.0000E+00  0.0000E+00  0.5600E+02  0.5600E+02
     14.563  0.0000E+00  0.0000E+00  0.5600E+02  0.5600E+02
     14.626  0.0000E+00  0.0000E+00  0.5600E+02  0.5600E+02
     14.688  0.0000E+00  0.0000E+00  0.5600E+02  0.5600E+02
     14.751  0.0000E+00  0.0000E+00  0.5600E+02  0.5600E+02
     14.813  0.0000E+00  0.0000E+00  0.5600E+02  0.5600E+02
     14.876  0.0000E+00  0.0000E+00  0.5600E+02  0.5600E+02
     14.87585320     -3.87149611  301      7.81798940      1.00000000
     -3.871  0.0000E+00  0.0000E+00  0.0000E+00  0.0000E+00  0.0000E+00  0.0000E+00  0.0000E+00  0.0000E+00  0.0000E+00  0.0000E+00  0.0000E+00  0.0000E+00  0.0000E+00  0.0000E+00  0.0000E+00  0.0000E+00  0.0000E+00  0.0000E+00
     -3.809  0.0000E+00  0.0000E+00  0.0000E+00  0.0000E+00  0.0000E+00  0.0000E+00  0.0000E+00  0.0000E+00  0.0000E+00  0.0000E+00  0.0000E+00  0.0000E+00  0.0000E+00  0.0000E+00  0.0000E+00  0.0000E+00  0.0000E+00  0.0000E+00
     -3.747  0.0000E+00  0.0000E+00  0.0000E+00  0.0000E+00  0.0000E+00  0.0000E+00  0.0000E+00  0.0000E+00  0.0000E+00  0.0000E+00  0.0000E+00  0.0000E+00  0.0000E+00  0.0000E+00  0.0000E+00  0.0000E+00  0.0000E+00  0.0000E+00
     -3.684  0.0000E+00  0.0000E+00  0.0000E+00  0.0000E+00  0.0000E+00  0.0000E+00  0.0000E+00  0.0000E+00  0.0000E+00  0.0000E+00  0.0000E+00  0.0000E+00  0.0000E+00  0.0000E+00  0.0000E+00  0.0000E+00  0.0000E+00  0.0000E+00
     -3.622  0.0000E+00  0.0000E+00  0.0000E+00  0.0000E+00  0.0000E+00  0.0000E+00  0.0000E+00  0.0000E+00  0.0000E+00  0.0000E+00  0.0000E+00  0.0000E+00  0.0000E+00  0.0000E+00  0.0000E+00  0.0000E+00  0.0000E+00  0.0000E+00
     -3.559  0.0000E+00  0.0000E+00  0.0000E+00  0.0000E+00  0.0000E+00  0.0000E+00  0.0000E+00  0.0000E+00  0.0000E+00  0.0000E+00  0.0000E+00  0.0000E+00  0.0000E+00  0.0000E+00  0.0000E+00  0.0000E+00  0.0000E+00  0.0000E+00
     -3.497  0.0000E+00  0.0000E+00  0.0000E+00  0.0000E+00  0.0000E+00  0.0000E+00  0.0000E+00  0.0000E+00  0.0000E+00  0.0000E+00  0.0000E+00  0.0000E+00  0.0000E+00  0.0000E+00  0.0000E+00  0.0000E+00  0.0000E+00  0.0000E+00
     -3.434  0.1571E-06  0.1569E-06  0.2710E-21  0.4705E-20  0.6769E-11  0.6745E-11  0.2710E-21  0.4705E-20  0.6905E-17  0.1730E-17  0.2073E-16  0.3511E-17  0.2425E-11  0.2413E-11  0.2073E-16  0.3511E-17  0.1061E-14  0.3361E-15
     -3.372  0.1397E-05  0.1396E-05  0.2172E-08  0.2168E-08  0.2267E-08  0.2264E-08  0.2172E-08  0.2168E-08  0.4120E-16  0.3079E-16  0.7649E-13  0.4772E-13  0.3517E-10  0.3488E-10  0.7649E-13  0.4772E-13  0.9727E-11  0.9743E-11
     -3.309  0.6008E-05  0.6001E-05  0.1445E-07  0.1442E-07  0.1580E-07  0.1577E-07  0.1445E-07  0.1442E-07  0.7621E-10  0.7533E-10  0.7426E-10  0.7310E-10  0.1591E-09  0.1574E-09  0.7426E-10  0.7310E-10  0.4262E-10  0.4247E-10
     -3.247  0.2056E-04  0.2054E-04  0.5436E-07  0.5428E-07  0.5645E-07  0.5636E-07  0.5436E-07  0.5428E-07  0.3344E-09  0.3329E-09  0.3553E-09  0.3498E-09  0.5628E-09  0.5604E-09  0.3553E-09  0.3498E-09  0.1981E-09  0.1962E-09
     -3.184  0.7050E-04  0.7042E-04  0.1932E-06  0.1930E-06  0.1965E-06  0.1962E-06  0.1932E-06  0.1930E-06  0.1285E-08  0.1284E-08  0.1197E-08  0.1180E-08  0.2144E-08  0.2135E-08  0.1197E-08  0.1180E-08  0.8344E-09  0.8287E-09
     -3.122  0.2366E-03  0.2364E-03  0.6684E-06  0.6674E-06  0.7073E-06  0.7062E-06  0.6684E-06  0.6674E-06  0.4696E-08  0.4692E-08  0.4656E-08  0.4595E-08  0.7381E-08  0.7346E-08  0.4656E-08  0.4595E-08  0.2834E-08  0.2816E-08
     -3.059  0.7263E-03  0.7256E-03  0.2186E-05  0.2183E-05  0.2339E-05  0.2336E-05  0.2186E-05  0.2183E-05  0.1562E-07  0.1560E-07  0.1588E-07  0.1568E-07  0.2332E-07  0.2322E-07  0.1588E-07  0.1568E-07  0.9224E-08  0.9161E-08
     -2.997  0.1865E-02  0.1864E-02  0.6469E-05  0.6461E-05  0.6985E-05  0.6976E-05  0.6469E-05  0.6461E-05  0.5103E-07  0.5103E-07  0.5157E-07  0.5093E-07  0.6473E-07  0.6452E-07  0.5157E-07  0.5093E-07  0.2815E-07  0.2793E-07
     -2.934  0.3654E-02  0.3652E-02  0.1566E-04  0.1565E-04  0.1703E-04  0.1701E-04  0.1566E-04  0.1565E-04  0.1451E-06  0.1453E-06  0.1490E-06  0.1473E-06  0.1479E-06  0.1478E-06  0.1490E-06  0.1473E-06  0.7632E-07  0.7564E-07
     -2.872  0.5328E-02  0.5328E-02  0.3020E-04  0.3018E-04  0.3172E-04  0.3170E-04  0.3020E-04  0.3018E-04  0.3337E-06  0.3356E-06  0.3412E-06  0.3379E-06  0.2996E-06  0.3007E-06  0.3412E-06  0.3379E-06  0.1932E-06  0.1913E-06
     -2.809  0.6513E-02  0.6512E-02  0.5135E-04  0.5132E-04  0.5095E-04  0.5091E-04  0.5135E-04  0.5132E-04  0.6791E-06  0.6855E-06  0.6643E-06  0.6600E-06  0.6158E-06  0.6190E-06  0.6643E-06  0.6600E-06  0.4529E-06  0.4491E-06
     -2.747  0.8162E-02  0.8161E-02  0.8283E-04  0.8279E-04  0.8544E-04  0.8539E-04  0.8283E-04  0.8279E-04  0.1330E-05  0.1344E-05  0.1305E-05  0.1300E-05  0.1153E-05  0.1156E-05  0.1305E-05  0.1300E-05  0.8505E-06  0.8458E-06
     -2.684  0.9837E-02  0.9838E-02  0.1135E-03  0.1135E-03  0.1301E-03  0.1300E-03  0.1135E-03  0.1135E-03  0.2252E-05  0.2268E-05  0.2322E-05  0.2317E-05  0.1645E-05  0.1645E-05  0.2322E-05  0.2317E-05  0.1174E-05  0.1171E-05
     -2.622  0.9649E-02  0.9651E-02  0.1284E-03  0.1284E-03  0.1497E-03  0.1496E-03  0.1284E-03  0.1284E-03  0.3217E-05  0.3224E-05  0.3264E-05  0.3259E-05  0.1934E-05  0.1932E-05  0.3264E-05  0.3259E-05  0.1447E-05  0.1442E-05
     -2.559  0.9328E-02  0.9329E-02  0.1595E-03  0.1595E-03  0.1614E-03  0.1613E-03  0.1595E-03  0.1595E-03  0.4715E-05  0.4702E-05  0.4616E-05  0.4607E-05  0.2625E-05  0.2624E-05  0.4616E-05  0.4607E-05  0.2414E-05  0.2399E-05
     -2.497  0.1123E-01  0.1123E-01  0.2324E-03  0.2323E-03  0.2137E-03  0.2136E-03  0.2324E-03  0.2323E-03  0.7011E-05  0.6971E-05  0.7146E-05  0.7129E-05  0.4357E-05  0.4360E-05  0.7146E-05  0.7129E-05  0.4562E-05  0.4531E-05
     -2.434  0.1292E-01  0.1292E-01  0.2912E-03  0.2912E-03  0.2805E-03  0.2804E-03  0.2912E-03  0.2912E-03  0.9038E-05  0.8989E-05  0.9238E-05  0.9217E-05  0.6852E-05  0.6858E-05  0.9238E-05  0.9217E-05  0.6655E-05  0.6614E-05
     -2.372  0.1276E-01  0.1276E-01  0.3014E-03  0.3013E-03  0.3416E-03  0.3415E-03  0.3014E-03  0.3013E-03  0.1145E-04  0.1142E-04  0.1093E-04  0.1092E-04  0.9092E-05  0.9097E-05  0.1093E-04  0.1092E-04  0.6964E-05  0.6935E-05
     -2.309  0.1254E-01  0.1254E-01  0.3213E-03  0.3213E-03  0.3960E-03  0.3959E-03  0.3213E-03  0.3213E-03  0.1646E-04  0.1644E-04  0.1483E-04  0.1482E-04  0.1027E-04  0.1028E-04  0.1483E-04  0.1482E-04  0.6617E-05  0.6611E-05
     -2.247  0.1339E-01  0.1339E-01  0.3886E-03  0.3885E-03  0.4463E-03  0.4462E-03  0.3886E-03  0.3885E-03  0.2235E-04  0.2233E-04  0.2148E-04  0.2148E-04  0.1101E-04  0.1104E-04  0.2148E-04  0.2148E-04  0.8262E-05  0.8273E-05
     -2.184  0.1397E-01  0.1397E-01  0.4398E-03  0.4398E-03  0.5021E-03  0.5020E-03  0.4398E-03  0.4398E-03  0.2391E-04  0.2389E-04  0.2752E-04  0.2753E-04  0.1233E-04  0.1235E-04  0.2752E-04  0.2753E-04  0.1162E-04  0.1164E-04
     -2.122  0.1313E-01  0.1313E-01  0.4658E-03  0.4656E-03  0.4831E-03  0.4831E-03  0.4658E-03  0.4656E-03  0.2384E-04  0.2381E-04  0.2835E-04  0.2836E-04  0.1452E-04  0.1454E-04  0.2835E-04  0.2836E-04  0.1655E-04  0.1657E-04
     -2.059  0.1338E-01  0.1338E-01  0.5667E-03  0.5665E-03  0.4549E-03  0.4548E-03  0.5667E-03  0.5665E-03  0.3306E-04  0.3302E-04  0.3041E-04  0.3039E-04  0.1917E-04  0.1923E-04  0.3041E-04  0.3039E-04  0.2332E-04  0.2336E-04
     -1.997  0.1515E-01  0.1515E-01  0.6823E-03  0.6822E-03  0.5789E-03  0.5786E-03  0.6823E-03  0.6822E-03  0.4813E-04  0.4807E-04  0.3948E-04  0.3947E-04  0.2703E-04  0.2715E-04  0.3948E-04  0.3947E-04  0.2699E-04  0.2706E-04
     -1.934  0.1629E-01  0.1629E-01  0.7203E-03  0.7202E-03  0.8019E-03  0.8015E-03  0.7203E-03  0.7202E-03  0.5719E-04  0.5712E-04  0.5160E-04  0.5159E-04  0.3570E-04  0.3586E-04  0.5160E-04  0.5159E-04  0.2735E-04  0.2742E-04
     -1.872  0.1687E-01  0.1687E-01  0.7596E-03  0.7595E-03  0.9556E-03  0.9555E-03  0.7596E-03  0.7595E-03  0.6236E-04  0.6225E-04  0.6511E-04  0.6510E-04  0.4051E-04  0.4068E-04  0.6511E-04  0.6510E-04  0.3049E-04  0.3054E-04
     -1.809  0.1606E-01  0.1606E-01  0.7639E-03  0.7639E-03  0.9638E-03  0.9637E-03  0.7639E-03  0.7639E-03  0.6630E-04  0.6619E-04  0.7458E-04  0.7457E-04  0.3938E-04  0.3953E-04  0.7458E-04  0.7457E-04  0.3158E-04  0.3161E-04
     -1.747  0.1461E-01  0.1461E-01  0.7144E-03  0.7143E-03  0.9931E-03  0.9929E-03  0.7144E-03  0.7143E-03  0.7151E-04  0.7146E-04  0.8302E-04  0.8302E-04  0.3949E-04  0.3959E-04  0.8302E-04  0.8302E-04  0.2756E-04  0.2758E-04
     -1.684  0.1423E-01  0.1423E-01  0.7718E-03  0.7715E-03  0.9831E-03  0.9831E-03  0.7718E-03  0.7715E-03  0.8855E-04  0.8850E-04  0.8909E-04  0.8910E-04  0.4387E-04  0.4396E-04  0.8909E-04  0.8910E-04  0.3196E-04  0.3197E-04
     -1.622  0.1478E-01  0.1478E-01  0.9841E-03  0.9836E-03  0.8382E-03  0.8382E-03  0.9841E-03  0.9836E-03  0.1160E-03  0.1159E-03  0.9040E-04  0.9037E-04  0.5128E-04  0.5140E-04  0.9040E-04  0.9037E-04  0.5210E-04  0.5210E-04
     -1.559  0.1634E-01  0.1634E-01  0.1214E-02  0.1214E-02  0.8843E-03  0.8839E-03  0.1214E-02  0.1214E-02  0.1319E-03  0.1318E-03  0.1107E-03  0.1106E-03  0.6203E-04  0.6218E-04  0.1107E-03  0.1106E-03  0.7662E-04  0.7662E-04
     -1.497  0.1742E-01  0.1742E-01  0.1288E-02  0.1288E-02  0.1171E-02  0.1171E-02  0.1288E-02  0.1288E-02  0.1308E-03  0.1307E-03  0.1489E-03  0.1488E-03  0.7023E-04  0.7038E-04  0.1489E-03  0.1488E-03  0.8660E-04  0.8663E-04
     -1.434  0.1766E-01  0.1766E-01  0.1296E-02  0.1296E-02  0.1459E-02  0.1459E-02  0.1296E-02  0.1296E-02  0.1487E-03  0.1486E-03  0.1769E-03  0.1768E-03  0.8154E-04  0.8169E-04  0.1769E-03  0.1768E-03  0.8440E-04  0.8444E-04
     -1.372  0.1821E-01  0.1821E-01  0.1402E-02  0.1401E-02  0.1649E-02  0.1648E-02  0.1402E-02  0.1401E-02  0.1898E-03  0.1897E-03  0.1925E-03  0.1925E-03  0.9925E-04  0.9943E-04  0.1925E-03  0.1925E-03  0.8879E-04  0.8879E-04
     -1.309  0.1717E-01  0.1717E-01  0.1356E-02  0.1357E-02  0.1709E-02  0.1709E-02  0.1356E-02  0.1357E-02  0.2030E-03  0.2029E-03  0.1978E-03  0.1978E-03  0.1062E-03  0.1064E-03  0.1978E-03  0.1978E-03  0.8403E-04  0.8401E-04
     -1.247  0.1435E-01  0.1436E-01  0.1143E-02  0.1143E-02  0.1642E-02  0.1642E-02  0.1143E-02  0.1143E-02  0.2055E-03  0.2054E-03  0.1884E-03  0.1884E-03  0.1054E-03  0.1056E-03  0.1884E-03  0.1884E-03  0.6388E-04  0.6386E-04
     -1.184  0.1366E-01  0.1366E-01  0.1180E-02  0.1180E-02  0.1683E-02  0.1683E-02  0.1180E-02  0.1180E-02  0.2508E-03  0.2506E-03  0.2039E-03  0.2038E-03  0.1178E-03  0.1179E-03  0.2039E-03  0.2038E-03  0.6346E-04  0.6341E-04
     -1.122  0.1549E-01  0.1549E-01  0.1510E-02  0.1509E-02  0.1836E-02  0.1835E-02  0.1510E-02  0.1509E-02  0.3124E-03  0.3121E-03  0.2740E-03  0.2740E-03  0.1289E-03  0.1291E-03  0.2740E-03  0.2740E-03  0.9171E-04  0.9165E-04
     -1.059  0.1750E-01  0.1751E-01  0.1907E-02  0.1906E-02  0.1979E-02  0.1978E-02  0.1907E-02  0.1906E-02  0.3447E-03  0.3445E-03  0.3661E-03  0.3661E-03  0.1298E-03  0.1300E-03  0.3661E-03  0.3661E-03  0.1350E-03  0.1350E-03
     -0.997  0.1783E-01  0.1783E-01  0.2130E-02  0.2130E-02  0.2180E-02  0.2179E-02  0.2130E-02  0.2130E-02  0.3361E-03  0.3360E-03  0.4151E-03  0.4152E-03  0.1396E-03  0.1397E-03  0.4151E-03  0.4152E-03  0.1717E-03  0.1717E-03
     -0.934  0.1664E-01  0.1664E-01  0.2147E-02  0.2147E-02  0.2459E-02  0.2458E-02  0.2147E-02  0.2147E-02  0.3404E-03  0.3403E-03  0.4301E-03  0.4303E-03  0.1522E-03  0.1523E-03  0.4301E-03  0.4303E-03  0.1802E-03  0.1802E-03
     -0.872  0.1530E-01  0.1531E-01  0.2171E-02  0.2170E-02  0.2607E-02  0.2607E-02  0.2171E-02  0.2170E-02  0.3945E-03  0.3944E-03  0.4374E-03  0.4376E-03  0.1543E-03  0.1545E-03  0.4374E-03  0.4376E-03  0.1747E-03  0.1747E-03
     -0.809  0.1361E-01  0.1361E-01  0.2261E-02  0.2261E-02  0.2356E-02  0.2356E-02  0.2261E-02  0.2261E-02  0.4765E-03  0.4764E-03  0.4071E-03  0.4071E-03  0.1532E-03  0.1534E-03  0.4071E-03  0.4071E-03  0.1729E-03  0.1728E-03
     -0.747  0.1259E-01  0.1259E-01  0.2296E-02  0.2295E-02  0.2305E-02  0.2304E-02  0.2296E-02  0.2295E-02  0.5868E-03  0.5867E-03  0.4331E-03  0.4328E-03  0.1555E-03  0.1558E-03  0.4331E-03  0.4328E-03  0.1530E-03  0.1530E-03