  16  16   1   0
  0.1262563E+02  0.3693074E-09  0.3693074E-09  0.1481142E-08  0.5000000E-15
  1.000000000000000E-004
  CAR 
 unknown system                          
     18.66765456     -3.08930934  301     10.35042371      1.00000000
     -3.089  0.0000E+00  0.0000E+00  0.0000E+00  0.0000E+00
     -3.017  0.0000E+00  0.0000E+00  0.0000E+00  0.0000E+00
     -2.944  0.0000E+00  0.0000E+00  0.0000E+00  0.0000E+00
     -2.872  0.0000E+00  0.0000E+00  0.0000E+00  0.0000E+00
     -2.799  0.0000E+00  0.0000E+00  0.0000E+00  0.0000E+00
     -2.727  0.0000E+00  0.0000E+00  0.0000E+00  0.0000E+00
     -2.654  0.0000E+00  0.0000E+00  0.0000E+00  0.0000E+00
     -2.582  0.0000E+00  0.0000E+00  0.0000E+00  0.0000E+00
     -2.509  0.7654E-05  0.7620E-05  0.5551E-06  0.5526E-06
     -2.437  0.8496E-04  0.8458E-04  0.6717E-05  0.6687E-05
     -2.364  0.3877E-03  0.3860E-03  0.3483E-04  0.3468E-04
     -2.292  0.1568E-02  0.1561E-02  0.1485E-03  0.1479E-03
     -2.219  0.6515E-02  0.6487E-02  0.6210E-03  0.6183E-03
     -2.147  0.2460E-01  0.2450E-01  0.2405E-02  0.2395E-02
     -2.074  0.7464E-01  0.7442E-01  0.7818E-02  0.7793E-02
     -2.001  0.1619E+00  0.1616E+00  0.1956E-01  0.1951E-01
     -1.929  0.2416E+00  0.2414E+00  0.3708E-01  0.3702E-01
     -1.856  0.2867E+00  0.2865E+00  0.5787E-01  0.5780E-01
     -1.784  0.3690E+00  0.3687E+00  0.8463E-01  0.8454E-01
     -1.711  0.4694E+00  0.4693E+00  0.1187E+00  0.1186E+00
     -1.639  0.4443E+00  0.4446E+00  0.1509E+00  0.1508E+00
     -1.566  0.4097E+00  0.4096E+00  0.1806E+00  0.1805E+00
     -1.494  0.5343E+00  0.5338E+00  0.2194E+00  0.2193E+00
     -1.421  0.6360E+00  0.6359E+00  0.2655E+00  0.2654E+00
     -1.349  0.6132E+00  0.6134E+00  0.3100E+00  0.3099E+00
     -1.276  0.6001E+00  0.6000E+00  0.3536E+00  0.3535E+00
     -1.204  0.6656E+00  0.6654E+00  0.4019E+00  0.4017E+00
     -1.131  0.7123E+00  0.7124E+00  0.4536E+00  0.4534E+00
     -1.059  0.6465E+00  0.6467E+00  0.5005E+00  0.5003E+00
     -0.986  0.6715E+00  0.6711E+00  0.5492E+00  0.5490E+00
     -0.914  0.7995E+00  0.7992E+00  0.6072E+00  0.6070E+00
     -0.841  0.8661E+00  0.8659E+00  0.6700E+00  0.6698E+00
     -0.769  0.9212E+00  0.9211E+00  0.7369E+00  0.7367E+00
     -0.696  0.8712E+00  0.8715E+00  0.8001E+00  0.7999E+00
     -0.624  0.7856E+00  0.7857E+00  0.8571E+00  0.8569E+00
     -0.551  0.7851E+00  0.7851E+00  0.9141E+00  0.9139E+00
     -0.478  0.8299E+00  0.8296E+00  0.9743E+00  0.9741E+00
     -0.406  0.9589E+00  0.9585E+00  0.1044E+01  0.1044E+01
     -0.333  0.1038E+01  0.1037E+01  0.1119E+01  0.1119E+01
     -0.261  0.1059E+01  0.1059E+01  0.1196E+01  0.1196E+01
     -0.188  0.1146E+01  0.1146E+01  0.1279E+01  0.1279E+01
     -0.116  0.1089E+01  0.1089E+01  0.1358E+01  0.1358E+01
     -0.043  0.8738E+00  0.8742E+00  0.1422E+01  0.1421E+01
      0.029  0.8810E+00  0.8805E+00  0.1486E+01  0.1485E+01
      0.102  0.1076E+01  0.1075E+01  0.1564E+01  0.1563E+01
      0.174  0.1249E+01  0.1249E+01  0.1654E+01  0.1654E+01
      0.247  0.1284E+01  0.1284E+01  0.1748E+01  0.1747E+01
      0.319  0.1258E+01  0.1258E+01  0.1839E+01  0.1839E+01
      0.392  0.1239E+01  0.1239E+01  0.1929E+01  0.1928E+01
      0.464  0.1165E+01  0.1165E+01  0.2013E+01  0.2013E+01
      0.537  0.1167E+01  0.1167E+01  0.2098E+01  0.2098E+01
      0.609  0.1192E+01  0.1192E+01  0.2185E+01  0.2184E+01
      0.682  0.1342E+01  0.1341E+01  0.2282E+01  0.2282E+01
      0.754  0.1438E+01  0.1438E+01  0.2386E+01  0.2386E+01
      0.827  0.1306E+01  0.1306E+01  0.2481E+01  0.2481E+01
      0.899  0.1150E+01  0.1150E+01  0.2565E+01  0.2564E+01
      0.972  0.1098E+01  0.1098E+01  0.2644E+01  0.2644E+01
      1.045  0.1154E+01  0.1154E+01  0.2728E+01  0.2728E+01
      1.117  0.1334E+01  0.1333E+01  0.2825E+01  0.2824E+01
      1.190  0.1445E+01  0.1445E+01  0.2930E+01  0.2929E+01
      1.262  0.1536E+01  0.1536E+01  0.3041E+01  0.3041E+01
      1.335  0.1500E+01  0.1501E+01  0.3150E+01  0.3150E+01
      1.407  0.1357E+01  0.1358E+01  0.3248E+01  0.3248E+01
      1.480  0.1294E+01  0.1294E+01  0.3342E+01  0.3342E+01
      1.552  0.1328E+01  0.1328E+01  0.3439E+01  0.3438E+01
      1.625  0.1490E+01  0.1490E+01  0.3547E+01  0.3547E+01
      1.697  0.1568E+01  0.1568E+01  0.3661E+01  0.3660E+01
      1.770  0.1535E+01  0.1535E+01  0.3772E+01  0.3772E+01
      1.842  0.1475E+01  0.1475E+01  0.3879E+01  0.3879E+01
      1.915  0.1424E+01  0.1424E+01  0.3982E+01  0.3982E+01
      1.987  0.1493E+01  0.1493E+01  0.4091E+01  0.4091E+01
      2.060  0.1592E+01  0.1592E+01  0.4206E+01  0.4206E+01
      2.132  0.1806E+01  0.1806E+01  0.4338E+01  0.4337E+01
      2.205  0.1904E+01  0.1904E+01  0.4476E+01  0.4475E+01
      2.277  0.1732E+01  0.1732E+01  0.4601E+01  0.4601E+01
      2.350  0.1538E+01  0.1538E+01  0.4713E+01  0.4713E+01
      2.422  0.1547E+01  0.1546E+01  0.4825E+01  0.4825E+01
      2.495  0.1649E+01  0.1649E+01  0.4945E+01  0.4944E+01
      2.568  0.1633E+01  0.1633E+01  0.5063E+01  0.5063E+01
      2.640  0.1780E+01  0.1780E+01  0.5193E+01  0.5192E+01
      2.713  0.1838E+01  0.1838E+01  0.5326E+01  0.5326E+01
      2.785  0.1711E+01  0.1712E+01  0.5450E+01  0.5450E+01
      2.858  0.1828E+01  0.1827E+01  0.5583E+01  0.5583E+01
      2.930  0.2013E+01  0.2013E+01  0.5729E+01  0.5729E+01
      3.003  0.2004E+01  0.2004E+01  0.5874E+01  0.5874E+01
      3.075  0.1922E+01  0.1922E+01  0.6014E+01  0.6014E+01
      3.148  0.1865E+01  0.1865E+01  0.6149E+01  0.6149E+01
      3.220  0.1912E+01  0.1912E+01  0.6288E+01  0.6288E+01
      3.293  0.2004E+01  0.2004E+01  0.6433E+01  0.6433E+01
      3.365  0.2106E+01  0.2105E+01  0.6586E+01  0.6586E+01
      3.438  0.2241E+01  0.2241E+01  0.6749E+01  0.6749E+01
      3.510  0.2155E+01  0.2155E+01  0.6905E+01  0.6905E+01
      3.583  0.2024E+01  0.2024E+01  0.7052E+01  0.7052E+01
      3.655  0.2011E+01  0.2011E+01  0.7198E+01  0.7198E+01
      3.728  0.1964E+01  0.1964E+01  0.7341E+01  0.7340E+01
      3.800  0.2018E+01  0.2017E+01  0.7487E+01  0.7487E+01
      3.873  0.2359E+01  0.2358E+01  0.7658E+01  0.7658E+01
      3.945  0.2640E+01  0.2640E+01  0.7850E+01  0.7849E+01
      4.018  0.2764E+01  0.2764E+01  0.8050E+01  0.8050E+01
      4.090  0.2829E+01  0.2829E+01  0.8256E+01  0.8255E+01
      4.163  0.2685E+01  0.2685E+01  0.8451E+01  0.8450E+01
      4.236  0.2616E+01  0.2616E+01  0.8640E+01  0.8640E+01
      4.308  0.2699E+01  0.2699E+01  0.8836E+01  0.8836E+01
      4.381  0.2773E+01  0.2773E+01  0.9037E+01  0.9037E+01
      4.453  0.2632E+01  0.2633E+01  0.9229E+01  0.9228E+01
      4.526  0.2574E+01  0.2574E+01  0.9415E+01  0.9415E+01
      4.598  0.2736E+01  0.2736E+01  0.9614E+01  0.9614E+01
      4.671  0.3212E+01  0.3211E+01  0.9847E+01  0.9846E+01
      4.743  0.3528E+01  0.3528E+01  0.1010E+02  0.1010E+02
      4.816  0.3518E+01  0.3519E+01  0.1036E+02  0.1036E+02
      4.888  0.3697E+01  0.3697E+01  0.1063E+02  0.1063E+02
      4.961  0.4039E+01  0.4039E+01  0.1092E+02  0.1092E+02
      5.033  0.4392E+01  0.4392E+01  0.1124E+02  0.1124E+02
      5.106  0.4831E+01  0.4831E+01  0.1159E+02  0.1159E+02
      5.178  0.5154E+01  0.5155E+01  0.1196E+02  0.1196E+02
      5.251  0.5848E+01  0.5847E+01  0.1239E+02  0.1239E+02
      5.323  0.6990E+01  0.6990E+01  0.1289E+02  0.1289E+02
      5.396  0.7989E+01  0.7989E+01  0.1347E+02  0.1347E+02
      5.468  0.8759E+01  0.8758E+01  0.1411E+02  0.1411E+02
      5.541  0.9792E+01  0.9790E+01  0.1482E+02  0.1482E+02
      5.613  0.1156E+02  0.1156E+02  0.1566E+02  0.1566E+02
      5.686  0.1399E+02  0.1399E+02  0.1667E+02  0.1667E+02
      5.759  0.1581E+02  0.1581E+02  0.1782E+02  0.1782E+02
      5.831  0.1611E+02  0.1611E+02  0.1899E+02  0.1899E+02
      5.904  0.1595E+02  0.1595E+02  0.2015E+02  0.2015E+02
      5.976  0.1696E+02  0.1696E+02  0.2138E+02  0.2138E+02
      6.049  0.1867E+02  0.1867E+02  0.2273E+02  0.2273E+02
      6.121  0.1819E+02  0.1819E+02  0.2405E+02  0.2405E+02
      6.194  0.1420E+02  0.1420E+02  0.2508E+02  0.2508E+02
      6.266  0.8908E+01  0.8914E+01  0.2573E+02  0.2573E+02
      6.339  0.5657E+01  0.5662E+01  0.2614E+02  0.2614E+02
      6.411  0.7550E+01  0.7553E+01  0.2669E+02  0.2669E+02
      6.484  0.1077E+02  0.1077E+02  0.2747E+02  0.2747E+02
      6.556  0.1001E+02  0.1000E+02  0.2820E+02  0.2820E+02
      6.629  0.7765E+01  0.7763E+01  0.2876E+02  0.2876E+02
      6.701  0.6023E+01  0.6022E+01  0.2920E+02  0.2920E+02
      6.774  0.5009E+01  0.5008E+01  0.2956E+02  0.2956E+02
      6.846  0.4483E+01  0.4483E+01  0.2989E+02  0.2989E+02
      6.919  0.4216E+01  0.4215E+01  0.3020E+02  0.3020E+02
      6.991  0.4046E+01  0.4046E+01  0.3049E+02  0.3049E+02
      7.064  0.3878E+01  0.3877E+01  0.3077E+02  0.3077E+02
      7.136  0.3825E+01  0.3824E+01  0.3105E+02  0.3105E+02
      7.209  0.3950E+01  0.3949E+01  0.3134E+02  0.3134E+02
      7.282  0.4114E+01  0.4113E+01  0.3163E+02  0.3163E+02
      7.354  0.3955E+01  0.3955E+01  0.3192E+02  0.3192E+02
      7.427  0.3447E+01  0.3448E+01  0.3217E+02  0.3217E+02
      7.499  0.2782E+01  0.2783E+01  0.3237E+02  0.3237E+02
      7.572  0.2445E+01  0.2445E+01  0.3255E+02  0.3255E+02
      7.644  0.2649E+01  0.2648E+01  0.3274E+02  0.3274E+02
      7.717  0.3052E+01  0.3052E+01  0.3296E+02  0.3296E+02
      7.789  0.2964E+01  0.2964E+01  0.3318E+02  0.3318E+02
      7.862  0.2511E+01  0.2512E+01  0.3336E+02  0.3336E+02
      7.934  0.2364E+01  0.2364E+01  0.3353E+02  0.3353E+02
      8.007  0.2536E+01  0.2536E+01  0.3372E+02  0.3372E+02
      8.079  0.2589E+01  0.2589E+01  0.3391E+02  0.3391E+02
      8.152  0.2476E+01  0.2476E+01  0.3409E+02  0.3409E+02
      8.224  0.2339E+01  0.2339E+01  0.3426E+02  0.3425E+02
      8.297  0.2040E+01  0.2041E+01  0.3440E+02  0.3440E+02
      8.369  0.1904E+01  0.1903E+01  0.3454E+02  0.3454E+02
      8.442  0.2262E+01  0.2260E+01  0.3471E+02  0.3471E+02
      8.514  0.2789E+01  0.2788E+01  0.3491E+02  0.3491E+02
      8.587  0.3043E+01  0.3043E+01  0.3513E+02  0.3513E+02
      8.659  0.3043E+01  0.3043E+01  0.3535E+02  0.3535E+02
      8.732  0.3040E+01  0.3040E+01  0.3557E+02  0.3557E+02
      8.804  0.2979E+01  0.2980E+01  0.3579E+02  0.3579E+02
      8.877  0.2970E+01  0.2970E+01  0.3600E+02  0.3600E+02
      8.950  0.2905E+01  0.2906E+01  0.3621E+02  0.3621E+02
      9.022  0.2709E+01  0.2709E+01  0.3641E+02  0.3641E+02
      9.095  0.2672E+01  0.2672E+01  0.3660E+02  0.3660E+02
      9.167  0.2537E+01  0.2538E+01  0.3679E+02  0.3679E+02
      9.240  0.2540E+01  0.2540E+01  0.3697E+02  0.3697E+02
      9.312  0.2550E+01  0.2550E+01  0.3716E+02  0.3716E+02
      9.385  0.2483E+01  0.2483E+01  0.3734E+02  0.3734E+02
      9.457  0.2587E+01  0.2586E+01  0.3753E+02  0.3752E+02
      9.530  0.2848E+01  0.2847E+01  0.3773E+02  0.3773E+02
      9.602  0.2921E+01  0.2921E+01  0.3794E+02  0.3794E+02
      9.675  0.2875E+01  0.2875E+01  0.3815E+02  0.3815E+02
      9.747  0.2781E+01  0.2781E+01  0.3835E+02  0.3835E+02
      9.820  0.2879E+01  0.2879E+01  0.3856E+02  0.3856E+02
      9.892  0.2871E+01  0.2872E+01  0.3877E+02  0.3877E+02
      9.965  0.2688E+01  0.2688E+01  0.3897E+02  0.3897E+02
     10.037  0.2545E+01  0.2545E+01  0.3915E+02  0.3915E+02
     10.110  0.2562E+01  0.2562E+01  0.3934E+02  0.3934E+02
     10.182  0.2681E+01  0.2681E+01  0.3953E+02  0.3953E+02
     10.255  0.2767E+01  0.2767E+01  0.3973E+02  0.3973E+02
     10.327  0.2808E+01  0.2808E+01  0.3994E+02  0.3994E+02
     10.400  0.2736E+01  0.2737E+01  0.4014E+02  0.4013E+02
     10.473  0.2557E+01  0.2557E+01  0.4032E+02  0.4032E+02
     10.545  0.2418E+01  0.2418E+01  0.4050E+02  0.4050E+02
     10.618  0.2660E+01  0.2658E+01  0.4069E+02  0.4069E+02
     10.690  0.3106E+01  0.3105E+01  0.4091E+02  0.4091E+02
     10.763  0.3146E+01  0.3146E+01  0.4114E+02  0.4114E+02
     10.835  0.2817E+01  0.2818E+01  0.4135E+02  0.4135E+02
     10.908  0.2678E+01  0.2678E+01  0.4154E+02  0.4154E+02
     10.980  0.2528E+01  0.2529E+01  0.4173E+02  0.4172E+02
     11.053  0.2382E+01  0.2382E+01  0.4190E+02  0.4190E+02
     11.125  0.2549E+01  0.2548E+01  0.4208E+02  0.4208E+02
     11.198  0.2890E+01  0.2890E+01  0.4229E+02  0.4229E+02
     11.270  0.2730E+01  0.2731E+01  0.4249E+02  0.4249E+02
     11.343  0.2298E+01  0.2299E+01  0.4266E+02  0.4266E+02
     11.415  0.2137E+01  0.2137E+01  0.4281E+02  0.4281E+02
     11.488  0.2161E+01  0.2160E+01  0.4297E+02  0.4297E+02
     11.560  0.2775E+01  0.2773E+01  0.4317E+02  0.4317E+02
     11.633  0.3148E+01  0.3148E+01  0.4340E+02  0.4340E+02
     11.705  0.2946E+01  0.2947E+01  0.4361E+02  0.4361E+02
     11.778  0.2759E+01  0.2760E+01  0.4381E+02  0.4381E+02
     11.850  0.2703E+01  0.2703E+01  0.4401E+02  0.4401E+02
     11.923  0.2746E+01  0.2746E+01  0.4421E+02  0.4421E+02
     11.996  0.2733E+01  0.2733E+01  0.4441E+02  0.4441E+02
     12.068  0.2442E+01  0.2443E+01  0.4458E+02  0.4458E+02
     12.141  0.1994E+01  0.1995E+01  0.4473E+02  0.4473E+02
     12.213  0.1947E+01  0.1947E+01  0.4487E+02  0.4487E+02
     12.286  0.2392E+01  0.2391E+01  0.4504E+02  0.4504E+02
     12.358  0.3035E+01  0.3034E+01  0.4526E+02  0.4526E+02
     12.431  0.3362E+01  0.3362E+01  0.4551E+02  0.4551E+02
     12.503  0.3498E+01  0.3498E+01  0.4576E+02  0.4576E+02
     12.576  0.3499E+01  0.3499E+01  0.4602E+02  0.4602E+02
     12.648  0.3602E+01  0.3602E+01  0.4628E+02  0.4628E+02
     12.721  0.3395E+01  0.3397E+01  0.4652E+02  0.4652E+02
     12.793  0.3073E+01  0.3074E+01  0.4675E+02  0.4675E+02
     12.866  0.2828E+01  0.2829E+01  0.4695E+02  0.4695E+02
     12.938  0.2549E+01  0.2549E+01  0.4714E+02  0.4714E+02
     13.011  0.2524E+01  0.2524E+01  0.4732E+02  0.4732E+02
     13.083  0.2885E+01  0.2884E+01  0.4753E+02  0.4753E+02
     13.156  0.3305E+01  0.3304E+01  0.4777E+02  0.4777E+02
     13.228  0.3431E+01  0.3430E+01  0.4802E+02  0.4802E+02
     13.301  0.3417E+01  0.3418E+01  0.4827E+02  0.4827E+02
     13.373  0.3217E+01  0.3217E+01  0.4850E+02  0.4850E+02
     13.446  0.3053E+01  0.3054E+01  0.4872E+02  0.4872E+02
     13.519  0.2998E+01  0.2998E+01  0.4894E+02  0.4894E+02
     13.591  0.2759E+01  0.2760E+01  0.4914E+02  0.4914E+02
     13.664  0.2746E+01  0.2746E+01  0.4934E+02  0.4934E+02
     13.736  0.2946E+01  0.2946E+01  0.4955E+02  0.4955E+02
     13.809  0.3095E+01  0.3094E+01  0.4978E+02  0.4978E+02
     13.881  0.2979E+01  0.2980E+01  0.4999E+02  0.4999E+02
     13.954  0.2561E+01  0.2561E+01  0.5018E+02  0.5018E+02
     14.026  0.2316E+01  0.2315E+01  0.5035E+02  0.5035E+02
     14.099  0.2509E+01  0.2505E+01  0.5053E+02  0.5053E+02
     14.171  0.2563E+01  0.2557E+01  0.5072E+02  0.5072E+02
     14.244  0.2718E+01  0.2715E+01  0.5091E+02  0.5091E+02
     14.316  0.3141E+01  0.3142E+01  0.5114E+02  0.5114E+02
     14.389  0.3278E+01  0.3273E+01  0.5138E+02  0.5138E+02
     14.461  0.2974E+01  0.2971E+01  0.5160E+02  0.5159E+02
     14.534  0.2848E+01  0.2861E+01  0.5180E+02  0.5180E+02
     14.606  0.3276E+01  0.3274E+01  0.5204E+02  0.5204E+02
     14.679  0.3761E+01  0.3750E+01  0.5231E+02  0.5231E+02
     14.751  0.3395E+01  0.3397E+01  0.5256E+02  0.5256E+02
     14.824  0.2748E+01  0.2713E+01  0.5276E+02  0.5275E+02
     14.896  0.2502E+01  0.2460E+01  0.5294E+02  0.5293E+02
     14.969  0.2623E+01  0.2682E+01  0.5313E+02  0.5313E+02
     15.041  0.2910E+01  0.2967E+01  0.5334E+02  0.5334E+02
     15.114  0.2920E+01  0.2859E+01  0.5355E+02  0.5355E+02
     15.187  0.2661E+01  0.2611E+01  0.5375E+02  0.5374E+02
     15.259  0.2581E+01  0.2687E+01  0.5393E+02  0.5394E+02
     15.332  0.2562E+01  0.2687E+01  0.5412E+02  0.5413E+02
     15.404  0.2508E+01  0.2612E+01  0.5430E+02  0.5432E+02
     15.477  0.2257E+01  0.2328E+01  0.5447E+02  0.5449E+02
     15.549  0.1903E+01  0.1909E+01  0.5460E+02  0.5463E+02
     15.622  0.1602E+01  0.1604E+01  0.5472E+02  0.5474E+02
     15.694  0.1747E+01  0.1744E+01  0.5485E+02  0.5487E+02
     15.767  0.2370E+01  0.2256E+01  0.5502E+02  0.5503E+02
     15.839  0.2308E+01  0.2135E+01  0.5519E+02  0.5519E+02
     15.912  0.1545E+01  0.1461E+01  0.5530E+02  0.5530E+02
     15.984  0.9040E+00  0.8691E+00  0.5536E+02  0.5536E+02
     16.057  0.5528E+00  0.5457E+00  0.5541E+02  0.5540E+02
     16.129  0.4324E+00  0.4829E+00  0.5544E+02  0.5543E+02
     16.202  0.5585E+00  0.6006E+00  0.5548E+02  0.5548E+02
     16.274  0.6657E+00  0.6905E+00  0.5553E+02  0.5553E+02
     16.347  0.5949E+00  0.6671E+00  0.5557E+02  0.5558E+02
     16.419  0.5881E+00  0.6213E+00  0.5561E+02  0.5562E+02
     16.492  0.6744E+00  0.6098E+00  0.5566E+02  0.5566E+02
     16.564  0.7967E+00  0.7324E+00  0.5572E+02  0.5572E+02
     16.637  0.7279E+00  0.7036E+00  0.5577E+02  0.5577E+02
     16.710  0.3931E+00  0.4074E+00  0.5580E+02  0.5580E+02
     16.782  0.1929E+00  0.2097E+00  0.5581E+02  0.5581E+02
     16.855  0.2288E+00  0.2520E+00  0.5583E+02  0.5583E+02
     16.927  0.3695E+00  0.3914E+00  0.5586E+02  0.5586E+02
     17.000  0.4468E+00  0.4322E+00  0.5589E+02  0.5589E+02
     17.072  0.4998E+00  0.4402E+00  0.5593E+02  0.5592E+02
     17.145  0.3953E+00  0.3261E+00  0.5595E+02  0.5595E+02
     17.217  0.2032E+00  0.1607E+00  0.5597E+02  0.5596E+02
     17.290  0.7260E-01  0.1009E+00  0.5597E+02  0.5597E+02
     17.362  0.2011E-01  0.8208E-01  0.5598E+02  0.5597E+02
     17.435  0.6436E-02  0.4058E-01  0.5598E+02  0.5598E+02
     17.507  0.9061E-02  0.2280E-01  0.5598E+02  0.5598E+02
     17.580  0.3137E-01  0.4515E-01  0.5598E+02  0.5598E+02
     17.652  0.8439E-01  0.9870E-01  0.5599E+02  0.5599E+02
     17.725  0.1114E+00  0.1031E+00  0.5599E+02  0.5600E+02
     17.797  0.6207E-01  0.4814E-01  0.5600E+02  0.5600E+02
     17.870  0.1959E-01  0.1408E-01  0.5600E+02  0.5600E+02
     17.942  0.4972E-02  0.3496E-02  0.5600E+02  0.5600E+02
     18.015  0.1188E-02  0.8311E-03  0.5600E+02  0.5600E+02
     18.087  0.0000E+00  0.0000E+00  0.5600E+02  0.5600E+02
     18.160  0.0000E+00  0.0000E+00  0.5600E+02  0.5600E+02
     18.233  0.0000E+00  0.0000E+00  0.5600E+02  0.5600E+02
     18.305  0.0000E+00  0.0000E+00  0.5600E+02  0.5600E+02
     18.378  0.0000E+00  0.0000E+00  0.5600E+02  0.5600E+02
     18.450  0.0000E+00  0.0000E+00  0.5600E+02  0.5600E+02
     18.523  0.0000E+00  0.0000E+00  0.5600E+02  0.5600E+02
     18.595  0.0000E+00  0.0000E+00  0.5600E+02  0.5600E+02
     18.668  0.0000E+00  0.0000E+00  0.5600E+02  0.5600E+02
     18.66765456     -3.08930934  301     10.35042371      1.00000000
     -3.089  0.0000E+00  0.0000E+00  0.0000E+00  0.0000E+00  0.0000E+00  0.0000E+00  0.0000E+00  0.0000E+00  0.0000E+00  0.0000E+00  0.0000E+00  0.0000E+00  0.0000E+00  0.0000E+00  0.0000E+00  0.0000E+00  0.0000E+00  0.0000E+00
     -3.017  0.0000E+00  0.0000E+00  0.0000E+00  0.0000E+00  0.0000E+00  0.0000E+00  0.0000E+00  0.0000E+00  0.0000E+00  0.0000E+00  0.0000E+00  0.0000E+00  0.0000E+00  0.0000E+00  0.0000E+00  0.0000E+00  0.0000E+00  0.0000E+00
     -2.944  0.0000E+00  0.0000E+00  0.0000E+00  0.0000E+00  0.0000E+00  0.0000E+00  0.0000E+00  0.0000E+00  0.0000E+00  0.0000E+00  0.0000E+00  0.0000E+00  0.0000E+00  0.0000E+00  0.0000E+00  0.0000E+00  0.0000E+00  0.0000E+00
     -2.872  0.0000E+00  0.0000E+00  0.0000E+00  0.0000E+00  0.0000E+00  0.0000E+00  0.0000E+00  0.0000E+00  0.0000E+00  0.0000E+00  0.0000E+00  0.0000E+00  0.0000E+00  0.0000E+00  0.0000E+00  0.0000E+00  0.0000E+00  0.0000E+00
     -2.799  0.0000E+00  0.0000E+00  0.0000E+00  0.0000E+00  0.0000E+00  0.0000E+00  0.0000E+00  0.0000E+00  0.0000E+00  0.0000E+00  0.0000E+00  0.0000E+00  0.0000E+00  0.0000E+00  0.0000E+00  0.0000E+00  0.0000E+00  0.0000E+00
     -2.727  0.0000E+00  0.0000E+00  0.0000E+00  0.0000E+00  0.0000E+00  0.0000E+00  0.0000E+00  0.0000E+00  0.0000E+00  0.0000E+00  0.0000E+00  0.0000E+00  0.0000E+00  0.0000E+00  0.0000E+00  0.0000E+00  0.0000E+00  0.0000E+00
     -2.654  0.0000E+00  0.0000E+00  0.0000E+00  0.0000E+00  0.0000E+00  0.0000E+00  0.0000E+00  0.0000E+00  0.0000E+00  0.0000E+00  0.0000E+00  0.0000E+00  0.0000E+00  0.0000E+00  0.0000E+00  0.0000E+00  0.0000E+00  0.0000E+00
     -2.582  0.0000E+00  0.0000E+00  0.0000E+00  0.0000E+00  0.0000E+00  0.0000E+00  0.0000E+00  0.0000E+00  0.0000E+00  0.0000E+00  0.0000E+00  0.0000E+00  0.0000E+00  0.0000E+00  0.0000E+00  0.0000E+00  0.0000E+00  0.0000E+00
     -2.509  0.2040E-06  0.2031E-06  0.2297E-21  0.1182E-21  0.1305E-10  0.1303E-10  0.2297E-21  0.1182E-21  0.1957E-19  0.1529E-19  0.1104E-17  0.4401E-17  0.3432E-11  0.3455E-11  0.1104E-17  0.4401E-17  0.4979E-17  0.8638E-16
     -2.437  0.2247E-05  0.2238E-05  0.4975E-08  0.4954E-08  0.3302E-08  0.3288E-08  0.4975E-08  0.4954E-08  0.2513E-10  0.2481E-10  0.9586E-14  0.6213E-14  0.7295E-10  0.7346E-10  0.9586E-14  0.6213E-14  0.1561E-10  0.1554E-10
     -2.364  0.1023E-04  0.1019E-04  0.2557E-07  0.2547E-07  0.2970E-07  0.2957E-07  0.2557E-07  0.2547E-07  0.1297E-09  0.1288E-09  0.1572E-09  0.1554E-09  0.2637E-09  0.2660E-09  0.1572E-09  0.1554E-09  0.8024E-10  0.8003E-10
     -2.292  0.4138E-04  0.4120E-04  0.1042E-06  0.1038E-06  0.1075E-06  0.1070E-06  0.1042E-06  0.1038E-06  0.5050E-09  0.5009E-09  0.5128E-09  0.5068E-09  0.1170E-08  0.1179E-08  0.5128E-09  0.5068E-09  0.4071E-09  0.4050E-09
     -2.219  0.1719E-03  0.1712E-03  0.4573E-06  0.4553E-06  0.4697E-06  0.4677E-06  0.4573E-06  0.4553E-06  0.2478E-08  0.2459E-08  0.2337E-08  0.2310E-08  0.5172E-08  0.5208E-08  0.2337E-08  0.2310E-08  0.1926E-08  0.1916E-08
     -2.147  0.6483E-03  0.6459E-03  0.1864E-05  0.1857E-05  0.1964E-05  0.1956E-05  0.1864E-05  0.1857E-05  0.1069E-07  0.1060E-07  0.1048E-07  0.1037E-07  0.2029E-07  0.2044E-07  0.1048E-07  0.1037E-07  0.7775E-08  0.7737E-08
     -2.074  0.1963E-02  0.1958E-02  0.6663E-05  0.6640E-05  0.7185E-05  0.7159E-05  0.6663E-05  0.6640E-05  0.4200E-07  0.4169E-07  0.4216E-07  0.4172E-07  0.6592E-07  0.6642E-07  0.4216E-07  0.4172E-07  0.2775E-07  0.2763E-07
     -2.001  0.4242E-02  0.4235E-02  0.1830E-04  0.1826E-04  0.2018E-04  0.2013E-04  0.1830E-04  0.1826E-04  0.1416E-06  0.1408E-06  0.1456E-06  0.1442E-06  0.1619E-06  0.1631E-06  0.1456E-06  0.1442E-06  0.8153E-07  0.8116E-07
     -1.929  0.6297E-02  0.6293E-02  0.3675E-04  0.3669E-04  0.3924E-04  0.3918E-04  0.3675E-04  0.3669E-04  0.3530E-06  0.3519E-06  0.3677E-06  0.3648E-06  0.3301E-06  0.3316E-06  0.3677E-06  0.3648E-06  0.2200E-06  0.2186E-06
     -1.856  0.7403E-02  0.7401E-02  0.6289E-04  0.6279E-04  0.6066E-04  0.6058E-04  0.6289E-04  0.6279E-04  0.7305E-06  0.7283E-06  0.7061E-06  0.7018E-06  0.7367E-06  0.7371E-06  0.7061E-06  0.7018E-06  0.5865E-06  0.5825E-06
     -1.784  0.9427E-02  0.9419E-02  0.1068E-03  0.1066E-03  0.1062E-03  0.1060E-03  0.1068E-03  0.1066E-03  0.1533E-05  0.1527E-05  0.1462E-05  0.1455E-05  0.1550E-05  0.1548E-05  0.1462E-05  0.1455E-05  0.1220E-05  0.1213E-05
     -1.711  0.1190E-01  0.1190E-01  0.1509E-03  0.1508E-03  0.1747E-03  0.1745E-03  0.1509E-03  0.1508E-03  0.2725E-05  0.2716E-05  0.2836E-05  0.2827E-05  0.2273E-05  0.2271E-05  0.2836E-05  0.2827E-05  0.1668E-05  0.1662E-05
     -1.639  0.1118E-01  0.1119E-01  0.1603E-03  0.1603E-03  0.1941E-03  0.1942E-03  0.1603E-03  0.1603E-03  0.3750E-05  0.3740E-05  0.3839E-05  0.3833E-05  0.2475E-05  0.2469E-05  0.3839E-05  0.3833E-05  0.1806E-05  0.1798E-05
     -1.566  0.1017E-01  0.1017E-01  0.1929E-03  0.1927E-03  0.1940E-03  0.1939E-03  0.1929E-03  0.1927E-03  0.5470E-05  0.5454E-05  0.5259E-05  0.5252E-05  0.3226E-05  0.3211E-05  0.5259E-05  0.5252E-05  0.3035E-05  0.3017E-05
     -1.494  0.1310E-01  0.1309E-01  0.3044E-03  0.3040E-03  0.2703E-03  0.2700E-03  0.3044E-03  0.3040E-03  0.8516E-05  0.8497E-05  0.8812E-05  0.8805E-05  0.5701E-05  0.5670E-05  0.8812E-05  0.8805E-05  0.6500E-05  0.6464E-05
     -1.421  0.1547E-01  0.1546E-01  0.3892E-03  0.3890E-03  0.3607E-03  0.3605E-03  0.3892E-03  0.3890E-03  0.1074E-04  0.1072E-04  0.1129E-04  0.1128E-04  0.9493E-05  0.9450E-05  0.1129E-04  0.1128E-04  0.1001E-04  0.9968E-05
     -1.349  0.1476E-01  0.1476E-01  0.3834E-03  0.3834E-03  0.4387E-03  0.4384E-03  0.3834E-03  0.3834E-03  0.1310E-04  0.1308E-04  0.1260E-04  0.1259E-04  0.1298E-04  0.1294E-04  0.1260E-04  0.1259E-04  0.1001E-04  0.9986E-05
     -1.276  0.1426E-01  0.1426E-01  0.3996E-03  0.3994E-03  0.5090E-03  0.5089E-03  0.3996E-03  0.3994E-03  0.1974E-04  0.1972E-04  0.1730E-04  0.1728E-04  0.1450E-04  0.1448E-04  0.1730E-04  0.1728E-04  0.8653E-05  0.8634E-05
     -1.204  0.1563E-01  0.1563E-01  0.5065E-03  0.5061E-03  0.5706E-03  0.5703E-03  0.5065E-03  0.5061E-03  0.2820E-04  0.2819E-04  0.2638E-04  0.2635E-04  0.1515E-04  0.1511E-04  0.2638E-04  0.2635E-04  0.1125E-04  0.1122E-04
     -1.131  0.1656E-01  0.1656E-01  0.5722E-03  0.5722E-03  0.6656E-03  0.6654E-03  0.5722E-03  0.5722E-03  0.2899E-04  0.2900E-04  0.3490E-04  0.3489E-04  0.1683E-04  0.1680E-04  0.3490E-04  0.3489E-04  0.1615E-04  0.1612E-04
     -1.059  0.1486E-01  0.1486E-01  0.5743E-03  0.5741E-03  0.6146E-03  0.6150E-03  0.5743E-03  0.5741E-03  0.2597E-04  0.2596E-04  0.3379E-04  0.3381E-04  0.1946E-04  0.1943E-04  0.3379E-04  0.3381E-04  0.2315E-04  0.2310E-04
     -0.986  0.1520E-01  0.1520E-01  0.7288E-03  0.7280E-03  0.5327E-03  0.5325E-03  0.7288E-03  0.7280E-03  0.3883E-04  0.3879E-04  0.3496E-04  0.3496E-04  0.2578E-04  0.2574E-04  0.3496E-04  0.3496E-04  0.3454E-04  0.3449E-04
     -0.914  0.1788E-01  0.1787E-01  0.9018E-03  0.9015E-03  0.7141E-03  0.7132E-03  0.9018E-03  0.9015E-03  0.6026E-04  0.6023E-04  0.4741E-04  0.4740E-04  0.3769E-04  0.3765E-04  0.4741E-04  0.4740E-04  0.3957E-04  0.3955E-04
     -0.841  0.1910E-01  0.1910E-01  0.9212E-03  0.9212E-03  0.1046E-02  0.1046E-02  0.9212E-03  0.9212E-03  0.6989E-04  0.6986E-04  0.6251E-04  0.6248E-04  0.5177E-04  0.5172E-04  0.6251E-04  0.6248E-04  0.3817E-04  0.3814E-04
     -0.769  0.2005E-01  0.2005E-01  0.9863E-03  0.9861E-03  0.1263E-02  0.1263E-02  0.9863E-03  0.9861E-03  0.7522E-04  0.7517E-04  0.8082E-04  0.8078E-04  0.5932E-04  0.5930E-04  0.8082E-04  0.8078E-04  0.4471E-04  0.4465E-04
     -0.696  0.1875E-01  0.1877E-01  0.9877E-03  0.9881E-03  0.1216E-02  0.1216E-02  0.9877E-03  0.9881E-03  0.7905E-04  0.7902E-04  0.9084E-04  0.9083E-04  0.5491E-04  0.5494E-04  0.9084E-04  0.9083E-04  0.4641E-04  0.4639E-04
     -0.624  0.1665E-01  0.1665E-01  0.8769E-03  0.8771E-03  0.1279E-02  0.1278E-02  0.8769E-03  0.8771E-03  0.8300E-04  0.8298E-04  0.1014E-03  0.1014E-03  0.5460E-04  0.5466E-04  0.1014E-03  0.1014E-03  0.3585E-04  0.3586E-04
     -0.551  0.1638E-01  0.1638E-01  0.9542E-03  0.9536E-03  0.1281E-02  0.1281E-02  0.9542E-03  0.9536E-03  0.1058E-03  0.1057E-03  0.1088E-03  0.1089E-03  0.6173E-04  0.6180E-04  0.1088E-03  0.1089E-03  0.4158E-04  0.4152E-04
     -0.478  0.1707E-01  0.1707E-01  0.1271E-02  0.1270E-02  0.9920E-03  0.9926E-03  0.1271E-02  0.1270E-02  0.1450E-03  0.1449E-03  0.1036E-03  0.1037E-03  0.7173E-04  0.7170E-04  0.1036E-03  0.1037E-03  0.7587E-04  0.7578E-04
     -0.406  0.1941E-01  0.1940E-01  0.1601E-02  0.1600E-02  0.1071E-02  0.1070E-02  0.1601E-02  0.1600E-02  0.1623E-03  0.1622E-03  0.1321E-03  0.1321E-03  0.8815E-04  0.8809E-04  0.1321E-03  0.1321E-03  0.1176E-03  0.1176E-03
     -0.333  0.2065E-01  0.2065E-01  0.1650E-02  0.1651E-02  0.1504E-02  0.1502E-02  0.1650E-02  0.1651E-02  0.1499E-03  0.1499E-03  0.1869E-03  0.1869E-03  0.9710E-04  0.9706E-04  0.1869E-03  0.1869E-03  0.1295E-03  0.1296E-03
     -0.261  0.2065E-01  0.2065E-01  0.1631E-02  0.1630E-02  0.1858E-02  0.1857E-02  0.1631E-02  0.1630E-02  0.1763E-03  0.1762E-03  0.2191E-03  0.2192E-03  0.1140E-03  0.1139E-03  0.2191E-03  0.2192E-03  0.1203E-03  0.1203E-03
     -0.188  0.2189E-01  0.2189E-01  0.1842E-02  0.1841E-02  0.2087E-02  0.2086E-02  0.1842E-02  0.1841E-02  0.2390E-03  0.2390E-03  0.2360E-03  0.2361E-03  0.1472E-03  0.1472E-03  0.2360E-03  0.2361E-03  0.1337E-03  0.1337E-03
     -0.116  0.2044E-01  0.2046E-01  0.1739E-02  0.1741E-02  0.2177E-02  0.2177E-02  0.1739E-02  0.1741E-02  0.2433E-03  0.2435E-03  0.2410E-03  0.2411E-03  0.1579E-03  0.1581E-03  0.2410E-03  0.2411E-03  0.1248E-03  0.1249E-03
     -0.043  0.1604E-01  0.1605E-01  0.1352E-02  0.1353E-02  0.2001E-02  0.2001E-02  0.1352E-02  0.1353E-02  0.2378E-03  0.2378E-03  0.2149E-03  0.2151E-03  0.1513E-03  0.1515E-03  0.2149E-03  0.2151E-03  0.8310E-04  0.8321E-04
      0.029  0.1569E-01  0.1569E-01  0.1446E-02  0.1445E-02  0.2074E-02  0.2073E-02  0.1446E-02  0.1445E-02  0.3067E-03  0.3066E-03  0.2339E-03  0.2338E-03  0.1764E-03  0.1765E-03  0.2339E-03  0.2338E-03  0.8588E-04  0.8584E-04
      0.102  0.1884E-01  0.1883E-01  0.1937E-02  0.1935E-02  0.2364E-02  0.2363E-02  0.1937E-02  0.1935E-02  0.3893E-03  0.3894E-03  0.3413E-03  0.3411E-03  0.1937E-03  0.1939E-03  0.3413E-03  0.3411E-03  0.1351E-03  0.1350E-03
      0.174  0.2150E-01  0.2150E-01  0.2461E-02  0.2459E-02  0.2503E-02  0.2502E-02  0.2461E-02  0.2459E-02  0.4213E-03  0.4217E-03  0.4686E-03  0.4686E-03  0.1831E-03  0.1834E-03  0.4686E-03  0.4686E-03  0.2068E-03  0.2068E-03
      0.247  0.2134E-01  0.2135E-01  0.2678E-02  0.2677E-02  0.2612E-02  0.2612E-02  0.2678E-02  0.2677E-02  0.3861E-03  0.3867E-03  0.5054E-03  0.5057E-03  0.1997E-03  0.1997E-03  0.5054E-03  0.5057E-03  0.2674E-03  0.2676E-03
      0.319  0.1987E-01  0.1987E-01  0.2659E-02  0.2659E-02  0.2892E-02  0.2891E-02  0.2659E-02  0.2659E-02  0.3909E-03  0.3911E-03  0.5129E-03  0.5131E-03  0.2270E-03  0.2270E-03  0.5129E-03  0.5131E-03  0.2794E-03  0.2798E-03
      0.392  0.1844E-01  0.1845E-01  0.2661E-02  0.2661E-02  0.3154E-02  0.3154E-02  0.2661E-02  0.2661E-02  0.4683E-03  0.4684E-03  0.5224E-03  0.5228E-03  0.2280E-03  0.2281E-03  0.5224E-03  0.5228E-03  0.2664E-03  0.2668E-03
      0.464  0.1614E-01  0.1615E-01  0.2783E-02  0.2782E-02  0.2853E-02  0.2853E-02  0.2783E-02  0.2782E-02  0.5782E-03  0.5781E-03  0.4538E-03  0.4542E-03  0.2256E-03  0.2257E-03  0.4538E-03  0.4542E-03  0.2719E-03  0.2723E-03
      0.537  0.1556E-01  0.1556E-01  0.2891E-02  0.2892E-02  0.2845E-02  0.2843E-02  0.2891E-02  0.2892E-02  0.7375E-03  0.7377E-03  0.5002E-03  0.5000E-03  0.2378E-03  0.2380E-03  0.5002E-03  0.5000E-03  0.2474E-03  0.2480E-03