  16  16   1   0
  0.1968561E+02  0.4282395E-09  0.4282395E-09  0.1717495E-08  0.5000000E-15
  1.000000000000000E-004
  CAR 
 unknown system                          
     11.43477049     -4.48143529  301      5.53612569      1.00000000
     -4.481  0.0000E+00  0.0000E+00  0.0000E+00  0.0000E+00
     -4.428  0.0000E+00  0.0000E+00  0.0000E+00  0.0000E+00
     -4.375  0.0000E+00  0.0000E+00  0.0000E+00  0.0000E+00
     -4.322  0.0000E+00  0.0000E+00  0.0000E+00  0.0000E+00
     -4.269  0.0000E+00  0.0000E+00  0.0000E+00  0.0000E+00
     -4.216  0.0000E+00  0.0000E+00  0.0000E+00  0.0000E+00
     -4.163  0.2862E-04  0.2849E-04  0.1518E-05  0.1512E-05
     -4.110  0.9490E-04  0.9448E-04  0.6553E-05  0.6524E-05
     -4.057  0.3660E-03  0.3644E-03  0.2597E-04  0.2586E-04
     -4.004  0.9465E-03  0.9424E-03  0.7619E-04  0.7585E-04
     -3.951  0.2811E-02  0.2799E-02  0.2253E-03  0.2243E-03
     -3.898  0.8036E-02  0.8002E-02  0.6517E-03  0.6489E-03
     -3.845  0.2196E-01  0.2187E-01  0.1817E-02  0.1809E-02
     -3.792  0.5578E-01  0.5558E-01  0.4776E-02  0.4758E-02
     -3.739  0.1228E+00  0.1224E+00  0.1129E-01  0.1125E-01
     -3.686  0.2195E+00  0.2191E+00  0.2294E-01  0.2288E-01
     -3.633  0.3163E+00  0.3159E+00  0.3972E-01  0.3964E-01
     -3.580  0.3998E+00  0.3995E+00  0.6093E-01  0.6083E-01
     -3.526  0.4968E+00  0.4963E+00  0.8728E-01  0.8716E-01
     -3.473  0.5840E+00  0.5838E+00  0.1183E+00  0.1181E+00
     -3.420  0.6020E+00  0.6020E+00  0.1502E+00  0.1501E+00
     -3.367  0.6172E+00  0.6170E+00  0.1830E+00  0.1828E+00
     -3.314  0.7137E+00  0.7132E+00  0.2208E+00  0.2207E+00
     -3.261  0.8084E+00  0.8082E+00  0.2637E+00  0.2635E+00
     -3.208  0.8304E+00  0.8304E+00  0.3078E+00  0.3076E+00
     -3.155  0.8402E+00  0.8400E+00  0.3524E+00  0.3522E+00
     -3.102  0.8887E+00  0.8884E+00  0.3995E+00  0.3993E+00
     -3.049  0.9273E+00  0.9272E+00  0.4488E+00  0.4486E+00
     -2.996  0.9166E+00  0.9167E+00  0.4974E+00  0.4972E+00
     -2.943  0.9495E+00  0.9492E+00  0.5478E+00  0.5476E+00
     -2.890  0.1055E+01  0.1054E+01  0.6038E+00  0.6035E+00
     -2.837  0.1146E+01  0.1146E+01  0.6646E+00  0.6644E+00
     -2.784  0.1194E+01  0.1194E+01  0.7280E+00  0.7277E+00
     -2.731  0.1170E+01  0.1171E+01  0.7901E+00  0.7898E+00
     -2.678  0.1110E+01  0.1110E+01  0.8490E+00  0.8488E+00
     -2.625  0.1097E+01  0.1097E+01  0.9072E+00  0.9070E+00
     -2.571  0.1152E+01  0.1151E+01  0.9684E+00  0.9681E+00
     -2.518  0.1268E+01  0.1267E+01  0.1036E+01  0.1035E+01
     -2.465  0.1374E+01  0.1374E+01  0.1109E+01  0.1108E+01
     -2.412  0.1439E+01  0.1439E+01  0.1185E+01  0.1185E+01
     -2.359  0.1490E+01  0.1490E+01  0.1264E+01  0.1264E+01
     -2.306  0.1448E+01  0.1448E+01  0.1341E+01  0.1341E+01
     -2.253  0.1313E+01  0.1314E+01  0.1411E+01  0.1410E+01
     -2.200  0.1288E+01  0.1287E+01  0.1479E+01  0.1479E+01
     -2.147  0.1432E+01  0.1431E+01  0.1555E+01  0.1555E+01
     -2.094  0.1634E+01  0.1633E+01  0.1642E+01  0.1641E+01
     -2.041  0.1769E+01  0.1768E+01  0.1736E+01  0.1735E+01
     -1.988  0.1788E+01  0.1788E+01  0.1830E+01  0.1830E+01
     -1.935  0.1747E+01  0.1747E+01  0.1923E+01  0.1923E+01
     -1.882  0.1671E+01  0.1672E+01  0.2012E+01  0.2011E+01
     -1.829  0.1617E+01  0.1617E+01  0.2098E+01  0.2097E+01
     -1.776  0.1636E+01  0.1636E+01  0.2185E+01  0.2184E+01
     -1.723  0.1729E+01  0.1729E+01  0.2276E+01  0.2276E+01
     -1.670  0.1784E+01  0.1784E+01  0.2371E+01  0.2371E+01
     -1.617  0.1700E+01  0.1701E+01  0.2461E+01  0.2461E+01
     -1.563  0.1519E+01  0.1520E+01  0.2542E+01  0.2542E+01
     -1.510  0.1377E+01  0.1378E+01  0.2615E+01  0.2615E+01
     -1.457  0.1377E+01  0.1376E+01  0.2688E+01  0.2688E+01
     -1.404  0.1526E+01  0.1526E+01  0.2769E+01  0.2769E+01
     -1.351  0.1705E+01  0.1705E+01  0.2860E+01  0.2859E+01
     -1.298  0.1812E+01  0.1812E+01  0.2956E+01  0.2955E+01
     -1.245  0.1835E+01  0.1835E+01  0.3053E+01  0.3053E+01
     -1.192  0.1724E+01  0.1725E+01  0.3145E+01  0.3144E+01
     -1.139  0.1566E+01  0.1566E+01  0.3228E+01  0.3228E+01
     -1.086  0.1563E+01  0.1563E+01  0.3311E+01  0.3311E+01
     -1.033  0.1745E+01  0.1744E+01  0.3403E+01  0.3403E+01
     -0.980  0.1899E+01  0.1898E+01  0.3504E+01  0.3504E+01
     -0.927  0.1951E+01  0.1950E+01  0.3608E+01  0.3607E+01
     -0.874  0.1939E+01  0.1940E+01  0.3711E+01  0.3710E+01
     -0.821  0.1841E+01  0.1841E+01  0.3809E+01  0.3808E+01
     -0.768  0.1741E+01  0.1742E+01  0.3901E+01  0.3901E+01
     -0.715  0.1775E+01  0.1774E+01  0.3995E+01  0.3995E+01
     -0.662  0.1979E+01  0.1978E+01  0.4100E+01  0.4100E+01
     -0.608  0.2267E+01  0.2266E+01  0.4221E+01  0.4220E+01
     -0.555  0.2446E+01  0.2445E+01  0.4350E+01  0.4350E+01
     -0.502  0.2421E+01  0.2422E+01  0.4479E+01  0.4478E+01
     -0.449  0.2258E+01  0.2259E+01  0.4599E+01  0.4598E+01
     -0.396  0.2112E+01  0.2112E+01  0.4711E+01  0.4710E+01
     -0.343  0.2064E+01  0.2064E+01  0.4820E+01  0.4820E+01
     -0.290  0.2074E+01  0.2074E+01  0.4930E+01  0.4930E+01
     -0.237  0.2104E+01  0.2104E+01  0.5042E+01  0.5042E+01
     -0.184  0.2139E+01  0.2139E+01  0.5156E+01  0.5155E+01
     -0.131  0.2109E+01  0.2109E+01  0.5268E+01  0.5267E+01
     -0.078  0.2063E+01  0.2063E+01  0.5377E+01  0.5377E+01
     -0.025  0.2170E+01  0.2169E+01  0.5492E+01  0.5492E+01
      0.028  0.2402E+01  0.2401E+01  0.5620E+01  0.5619E+01
      0.081  0.2551E+01  0.2551E+01  0.5755E+01  0.5755E+01
      0.134  0.2496E+01  0.2497E+01  0.5888E+01  0.5887E+01
      0.187  0.2352E+01  0.2353E+01  0.6013E+01  0.6012E+01
      0.240  0.2234E+01  0.2234E+01  0.6131E+01  0.6131E+01
      0.293  0.2175E+01  0.2175E+01  0.6247E+01  0.6246E+01
      0.346  0.2244E+01  0.2244E+01  0.6366E+01  0.6365E+01
      0.400  0.2454E+01  0.2454E+01  0.6496E+01  0.6496E+01
      0.453  0.2733E+01  0.2733E+01  0.6641E+01  0.6641E+01
      0.506  0.2830E+01  0.2831E+01  0.6791E+01  0.6791E+01
      0.559  0.2627E+01  0.2628E+01  0.6931E+01  0.6931E+01
      0.612  0.2300E+01  0.2301E+01  0.7053E+01  0.7053E+01
      0.665  0.2240E+01  0.2240E+01  0.7172E+01  0.7172E+01
      0.718  0.2546E+01  0.2545E+01  0.7307E+01  0.7307E+01
      0.771  0.2852E+01  0.2852E+01  0.7458E+01  0.7458E+01
      0.824  0.2992E+01  0.2992E+01  0.7617E+01  0.7617E+01
      0.877  0.3069E+01  0.3069E+01  0.7780E+01  0.7780E+01
      0.930  0.3040E+01  0.3041E+01  0.7942E+01  0.7941E+01
      0.983  0.2913E+01  0.2913E+01  0.8096E+01  0.8096E+01
      1.036  0.2847E+01  0.2848E+01  0.8247E+01  0.8247E+01
      1.089  0.2836E+01  0.2836E+01  0.8398E+01  0.8398E+01
      1.142  0.2890E+01  0.2890E+01  0.8551E+01  0.8551E+01
      1.195  0.3048E+01  0.3048E+01  0.8713E+01  0.8713E+01
      1.248  0.3226E+01  0.3226E+01  0.8884E+01  0.8884E+01
      1.301  0.3305E+01  0.3305E+01  0.9060E+01  0.9060E+01
      1.355  0.3200E+01  0.3201E+01  0.9230E+01  0.9229E+01
      1.408  0.3063E+01  0.3064E+01  0.9392E+01  0.9392E+01
      1.461  0.2996E+01  0.2997E+01  0.9551E+01  0.9551E+01
      1.514  0.2981E+01  0.2982E+01  0.9710E+01  0.9709E+01
      1.567  0.2969E+01  0.2969E+01  0.9867E+01  0.9867E+01
      1.620  0.2868E+01  0.2868E+01  0.1002E+02  0.1002E+02
      1.673  0.2790E+01  0.2790E+01  0.1017E+02  0.1017E+02
      1.726  0.2938E+01  0.2938E+01  0.1032E+02  0.1032E+02
      1.779  0.3389E+01  0.3390E+01  0.1050E+02  0.1050E+02
      1.832  0.3912E+01  0.3913E+01  0.1071E+02  0.1071E+02
      1.885  0.4093E+01  0.4094E+01  0.1093E+02  0.1093E+02
      1.938  0.4037E+01  0.4038E+01  0.1114E+02  0.1114E+02
      1.991  0.3995E+01  0.3996E+01  0.1135E+02  0.1135E+02
      2.044  0.4081E+01  0.4083E+01  0.1157E+02  0.1157E+02
      2.097  0.4347E+01  0.4349E+01  0.1180E+02  0.1180E+02
      2.150  0.4792E+01  0.4794E+01  0.1206E+02  0.1206E+02
      2.203  0.5336E+01  0.5340E+01  0.1234E+02  0.1234E+02
      2.256  0.5932E+01  0.5937E+01  0.1265E+02  0.1266E+02
      2.309  0.6601E+01  0.6607E+01  0.1300E+02  0.1301E+02
      2.363  0.7267E+01  0.7275E+01  0.1339E+02  0.1339E+02
      2.416  0.8162E+01  0.8173E+01  0.1382E+02  0.1383E+02
      2.469  0.1001E+02  0.1003E+02  0.1435E+02  0.1436E+02
      2.522  0.1353E+02  0.1357E+02  0.1507E+02  0.1508E+02
      2.575  0.1834E+02  0.1839E+02  0.1605E+02  0.1605E+02
      2.628  0.2283E+02  0.2288E+02  0.1726E+02  0.1727E+02
      2.681  0.2579E+02  0.2584E+02  0.1862E+02  0.1864E+02
      2.734  0.2773E+02  0.2777E+02  0.2010E+02  0.2011E+02
      2.787  0.2956E+02  0.2959E+02  0.2166E+02  0.2168E+02
      2.840  0.3004E+02  0.3003E+02  0.2326E+02  0.2328E+02
      2.893  0.2685E+02  0.2678E+02  0.2468E+02  0.2470E+02
      2.946  0.2163E+02  0.2155E+02  0.2583E+02  0.2584E+02
      2.999  0.1896E+02  0.1892E+02  0.2684E+02  0.2684E+02
      3.052  0.1823E+02  0.1821E+02  0.2781E+02  0.2781E+02
      3.105  0.1584E+02  0.1582E+02  0.2865E+02  0.2865E+02
      3.158  0.1246E+02  0.1244E+02  0.2931E+02  0.2931E+02
      3.211  0.9944E+01  0.9933E+01  0.2984E+02  0.2984E+02
      3.264  0.8509E+01  0.8501E+01  0.3029E+02  0.3029E+02
      3.318  0.7603E+01  0.7598E+01  0.3070E+02  0.3070E+02
      3.371  0.7012E+01  0.7009E+01  0.3107E+02  0.3107E+02
      3.424  0.6712E+01  0.6709E+01  0.3142E+02  0.3143E+02
      3.477  0.6329E+01  0.6323E+01  0.3176E+02  0.3176E+02
      3.530  0.5624E+01  0.5617E+01  0.3206E+02  0.3206E+02
      3.583  0.4964E+01  0.4959E+01  0.3232E+02  0.3232E+02
      3.636  0.4693E+01  0.4691E+01  0.3257E+02  0.3257E+02
      3.689  0.4670E+01  0.4670E+01  0.3282E+02  0.3282E+02
      3.742  0.4660E+01  0.4661E+01  0.3307E+02  0.3307E+02
      3.795  0.4738E+01  0.4739E+01  0.3332E+02  0.3332E+02
      3.848  0.4908E+01  0.4908E+01  0.3358E+02  0.3358E+02
      3.901  0.4982E+01  0.4981E+01  0.3384E+02  0.3385E+02
      3.954  0.4959E+01  0.4957E+01  0.3411E+02  0.3411E+02
      4.007  0.4894E+01  0.4893E+01  0.3437E+02  0.3437E+02
      4.060  0.4704E+01  0.4702E+01  0.3462E+02  0.3462E+02
      4.113  0.4474E+01  0.4472E+01  0.3485E+02  0.3486E+02
      4.166  0.4340E+01  0.4339E+01  0.3509E+02  0.3509E+02
      4.219  0.4350E+01  0.4349E+01  0.3532E+02  0.3532E+02
      4.272  0.4422E+01  0.4421E+01  0.3555E+02  0.3555E+02
      4.326  0.4452E+01  0.4451E+01  0.3579E+02  0.3579E+02
      4.379  0.4349E+01  0.4348E+01  0.3602E+02  0.3602E+02
      4.432  0.4051E+01  0.4050E+01  0.3623E+02  0.3623E+02
      4.485  0.3610E+01  0.3609E+01  0.3642E+02  0.3642E+02
      4.538  0.3322E+01  0.3322E+01  0.3660E+02  0.3660E+02
      4.591  0.3381E+01  0.3381E+01  0.3678E+02  0.3678E+02
      4.644  0.3523E+01  0.3523E+01  0.3697E+02  0.3697E+02
      4.697  0.3483E+01  0.3482E+01  0.3715E+02  0.3715E+02
      4.750  0.3342E+01  0.3342E+01  0.3733E+02  0.3733E+02
      4.803  0.3312E+01  0.3312E+01  0.3751E+02  0.3751E+02
      4.856  0.3326E+01  0.3325E+01  0.3768E+02  0.3768E+02
      4.909  0.3311E+01  0.3311E+01  0.3786E+02  0.3786E+02
      4.962  0.3385E+01  0.3384E+01  0.3804E+02  0.3804E+02
      5.015  0.3504E+01  0.3503E+01  0.3822E+02  0.3822E+02
      5.068  0.3570E+01  0.3569E+01  0.3841E+02  0.3841E+02
      5.121  0.3514E+01  0.3514E+01  0.3860E+02  0.3860E+02
      5.174  0.3325E+01  0.3325E+01  0.3878E+02  0.3878E+02
      5.227  0.3187E+01  0.3186E+01  0.3895E+02  0.3895E+02
      5.281  0.3175E+01  0.3175E+01  0.3911E+02  0.3911E+02
      5.334  0.3268E+01  0.3267E+01  0.3929E+02  0.3929E+02
      5.387  0.3423E+01  0.3422E+01  0.3947E+02  0.3947E+02
      5.440  0.3569E+01  0.3569E+01  0.3966E+02  0.3966E+02
      5.493  0.3599E+01  0.3599E+01  0.3985E+02  0.3985E+02
      5.546  0.3435E+01  0.3435E+01  0.4003E+02  0.4003E+02
      5.599  0.3258E+01  0.3258E+01  0.4021E+02  0.4021E+02
      5.652  0.3325E+01  0.3325E+01  0.4038E+02  0.4038E+02
      5.705  0.3498E+01  0.3498E+01  0.4057E+02  0.4057E+02
      5.758  0.3518E+01  0.3518E+01  0.4075E+02  0.4075E+02
      5.811  0.3407E+01  0.3407E+01  0.4094E+02  0.4093E+02
      5.864  0.3281E+01  0.3281E+01  0.4111E+02  0.4111E+02
      5.917  0.3282E+01  0.3282E+01  0.4128E+02  0.4128E+02
      5.970  0.3434E+01  0.3433E+01  0.4147E+02  0.4147E+02
      6.023  0.3566E+01  0.3565E+01  0.4166E+02  0.4165E+02
      6.076  0.3709E+01  0.3708E+01  0.4185E+02  0.4185E+02
      6.129  0.3998E+01  0.3997E+01  0.4206E+02  0.4206E+02
      6.182  0.4199E+01  0.4198E+01  0.4229E+02  0.4229E+02
      6.235  0.4131E+01  0.4131E+01  0.4251E+02  0.4251E+02
      6.289  0.4059E+01  0.4059E+01  0.4272E+02  0.4272E+02
      6.342  0.4207E+01  0.4206E+01  0.4295E+02  0.4294E+02
      6.395  0.4371E+01  0.4371E+01  0.4318E+02  0.4318E+02
      6.448  0.4307E+01  0.4308E+01  0.4341E+02  0.4341E+02
      6.501  0.4053E+01  0.4053E+01  0.4362E+02  0.4362E+02
      6.554  0.3708E+01  0.3708E+01  0.4382E+02  0.4382E+02
      6.607  0.3342E+01  0.3343E+01  0.4400E+02  0.4399E+02
      6.660  0.3099E+01  0.3099E+01  0.4416E+02  0.4416E+02
      6.713  0.3071E+01  0.3071E+01  0.4432E+02  0.4432E+02
      6.766  0.3208E+01  0.3207E+01  0.4449E+02  0.4449E+02
      6.819  0.3305E+01  0.3304E+01  0.4467E+02  0.4467E+02
      6.872  0.3289E+01  0.3289E+01  0.4484E+02  0.4484E+02
      6.925  0.3360E+01  0.3360E+01  0.4502E+02  0.4502E+02
      6.978  0.3639E+01  0.3639E+01  0.4521E+02  0.4521E+02
      7.031  0.4057E+01  0.4057E+01  0.4543E+02  0.4543E+02
      7.084  0.4384E+01  0.4383E+01  0.4566E+02  0.4566E+02
      7.137  0.4376E+01  0.4376E+01  0.4590E+02  0.4589E+02
      7.190  0.4153E+01  0.4153E+01  0.4612E+02  0.4611E+02
      7.244  0.3987E+01  0.3987E+01  0.4633E+02  0.4633E+02
      7.297  0.4026E+01  0.4025E+01  0.4654E+02  0.4654E+02
      7.350  0.4146E+01  0.4146E+01  0.4676E+02  0.4676E+02
      7.403  0.4144E+01  0.4145E+01  0.4698E+02  0.4698E+02
      7.456  0.4044E+01  0.4045E+01  0.4720E+02  0.4720E+02
      7.509  0.3876E+01  0.3876E+01  0.4740E+02  0.4740E+02
      7.562  0.3769E+01  0.3768E+01  0.4760E+02  0.4760E+02
      7.615  0.3788E+01  0.3787E+01  0.4780E+02  0.4780E+02
      7.668  0.3713E+01  0.3714E+01  0.4800E+02  0.4800E+02
      7.721  0.3532E+01  0.3532E+01  0.4819E+02  0.4819E+02
      7.774  0.3504E+01  0.3504E+01  0.4837E+02  0.4837E+02
      7.827  0.3585E+01  0.3585E+01  0.4856E+02  0.4856E+02
      7.880  0.3664E+01  0.3664E+01  0.4876E+02  0.4876E+02
      7.933  0.3893E+01  0.3893E+01  0.4896E+02  0.4896E+02
      7.986  0.4236E+01  0.4236E+01  0.4919E+02  0.4919E+02
      8.039  0.4542E+01  0.4542E+01  0.4943E+02  0.4943E+02
      8.092  0.4738E+01  0.4738E+01  0.4968E+02  0.4968E+02
      8.145  0.4631E+01  0.4632E+01  0.4993E+02  0.4993E+02
      8.198  0.4168E+01  0.4169E+01  0.5015E+02  0.5015E+02
      8.252  0.3659E+01  0.3660E+01  0.5034E+02  0.5034E+02
      8.305  0.3430E+01  0.3430E+01  0.5053E+02  0.5053E+02
      8.358  0.3441E+01  0.3441E+01  0.5071E+02  0.5071E+02
      8.411  0.3442E+01  0.3442E+01  0.5089E+02  0.5089E+02
      8.464  0.3414E+01  0.3413E+01  0.5107E+02  0.5107E+02
      8.517  0.3611E+01  0.3609E+01  0.5126E+02  0.5126E+02
      8.570  0.4122E+01  0.4118E+01  0.5148E+02  0.5148E+02
      8.623  0.4696E+01  0.4695E+01  0.5173E+02  0.5173E+02
      8.676  0.5020E+01  0.5027E+01  0.5200E+02  0.5200E+02
      8.729  0.4889E+01  0.4911E+01  0.5226E+02  0.5226E+02
      8.782  0.4324E+01  0.4371E+01  0.5249E+02  0.5249E+02
      8.835  0.3821E+01  0.3874E+01  0.5269E+02  0.5270E+02
      8.888  0.3912E+01  0.3944E+01  0.5290E+02  0.5291E+02
      8.941  0.4395E+01  0.4401E+01  0.5313E+02  0.5314E+02
      8.994  0.4620E+01  0.4588E+01  0.5338E+02  0.5338E+02
      9.047  0.4301E+01  0.4271E+01  0.5360E+02  0.5361E+02
      9.100  0.3731E+01  0.3748E+01  0.5380E+02  0.5381E+02
      9.153  0.3388E+01  0.3418E+01  0.5398E+02  0.5399E+02
      9.207  0.3266E+01  0.3258E+01  0.5416E+02  0.5416E+02
      9.260  0.3033E+01  0.3015E+01  0.5432E+02  0.5432E+02
      9.313  0.2660E+01  0.2700E+01  0.5446E+02  0.5447E+02
      9.366  0.2378E+01  0.2449E+01  0.5458E+02  0.5460E+02
      9.419  0.2267E+01  0.2301E+01  0.5471E+02  0.5472E+02
      9.472  0.2243E+01  0.2206E+01  0.5482E+02  0.5484E+02
      9.525  0.2212E+01  0.2101E+01  0.5494E+02  0.5495E+02
      9.578  0.2150E+01  0.2012E+01  0.5506E+02  0.5505E+02
      9.631  0.1995E+01  0.1907E+01  0.5516E+02  0.5516E+02
      9.684  0.1835E+01  0.1816E+01  0.5526E+02  0.5525E+02
      9.737  0.1722E+01  0.1749E+01  0.5535E+02  0.5534E+02
      9.790  0.1444E+01  0.1488E+01  0.5543E+02  0.5542E+02
      9.843  0.1095E+01  0.1112E+01  0.5549E+02  0.5548E+02
      9.896  0.9169E+00  0.9212E+00  0.5553E+02  0.5553E+02
      9.949  0.8766E+00  0.9071E+00  0.5558E+02  0.5558E+02
     10.002  0.8846E+00  0.9162E+00  0.5563E+02  0.5563E+02
     10.055  0.8893E+00  0.8890E+00  0.5568E+02  0.5568E+02
     10.108  0.7957E+00  0.7857E+00  0.5572E+02  0.5572E+02
     10.161  0.6100E+00  0.6091E+00  0.5575E+02  0.5575E+02
     10.215  0.4340E+00  0.4426E+00  0.5577E+02  0.5577E+02
     10.268  0.3474E+00  0.3672E+00  0.5579E+02  0.5579E+02
     10.321  0.3282E+00  0.3605E+00  0.5581E+02  0.5581E+02
     10.374  0.3729E+00  0.3958E+00  0.5583E+02  0.5583E+02
     10.427  0.4462E+00  0.4260E+00  0.5585E+02  0.5586E+02
     10.480  0.4896E+00  0.4400E+00  0.5588E+02  0.5588E+02
     10.533  0.4818E+00  0.4652E+00  0.5590E+02  0.5590E+02
     10.586  0.4640E+00  0.4867E+00  0.5593E+02  0.5593E+02
     10.639  0.4605E+00  0.4625E+00  0.5595E+02  0.5595E+02
     10.692  0.3961E+00  0.3766E+00  0.5597E+02  0.5597E+02
     10.745  0.2638E+00  0.2542E+00  0.5599E+02  0.5599E+02
     10.798  0.1341E+00  0.1352E+00  0.5600E+02  0.5600E+02
     10.851  0.5579E-01  0.5805E-01  0.5600E+02  0.5600E+02
     10.904  0.2048E-01  0.2188E-01  0.5600E+02  0.5600E+02
     10.957  0.7209E-02  0.7640E-02  0.5600E+02  0.5600E+02
     11.010  0.2339E-02  0.2254E-02  0.5600E+02  0.5600E+02
     11.063  0.6105E-03  0.6967E-03  0.5600E+02  0.5600E+02
     11.116  0.0000E+00  0.0000E+00  0.5600E+02  0.5600E+02
     11.170  0.0000E+00  0.0000E+00  0.5600E+02  0.5600E+02
     11.223  0.0000E+00  0.0000E+00  0.5600E+02  0.5600E+02
     11.276  0.0000E+00  0.0000E+00  0.5600E+02  0.5600E+02
     11.329  0.0000E+00  0.0000E+00  0.5600E+02  0.5600E+02
     11.382  0.0000E+00  0.0000E+00  0.5600E+02  0.5600E+02
     11.435  0.0000E+00  0.0000E+00  0.5600E+02  0.5600E+02
     11.43477049     -4.48143529  301      5.53612569      1.00000000
     -4.481  0.0000E+00  0.0000E+00  0.0000E+00  0.0000E+00  0.0000E+00  0.0000E+00  0.0000E+00  0.0000E+00  0.0000E+00  0.0000E+00  0.0000E+00  0.0000E+00  0.0000E+00  0.0000E+00  0.0000E+00  0.0000E+00  0.0000E+00  0.0000E+00
     -4.428  0.0000E+00  0.0000E+00  0.0000E+00  0.0000E+00  0.0000E+00  0.0000E+00  0.0000E+00  0.0000E+00  0.0000E+00  0.0000E+00  0.0000E+00  0.0000E+00  0.0000E+00  0.0000E+00  0.0000E+00  0.0000E+00  0.0000E+00  0.0000E+00
     -4.375  0.0000E+00  0.0000E+00  0.0000E+00  0.0000E+00  0.0000E+00  0.0000E+00  0.0000E+00  0.0000E+00  0.0000E+00  0.0000E+00  0.0000E+00  0.0000E+00  0.0000E+00  0.0000E+00  0.0000E+00  0.0000E+00  0.0000E+00  0.0000E+00
     -4.322  0.0000E+00  0.0000E+00  0.0000E+00  0.0000E+00  0.0000E+00  0.0000E+00  0.0000E+00  0.0000E+00  0.0000E+00  0.0000E+00  0.0000E+00  0.0000E+00  0.0000E+00  0.0000E+00  0.0000E+00  0.0000E+00  0.0000E+00  0.0000E+00
     -4.269  0.0000E+00  0.0000E+00  0.0000E+00  0.0000E+00  0.0000E+00  0.0000E+00  0.0000E+00  0.0000E+00  0.0000E+00  0.0000E+00  0.0000E+00  0.0000E+00  0.0000E+00  0.0000E+00  0.0000E+00  0.0000E+00  0.0000E+00  0.0000E+00
     -4.216  0.0000E+00  0.0000E+00  0.0000E+00  0.0000E+00  0.0000E+00  0.0000E+00  0.0000E+00  0.0000E+00  0.0000E+00  0.0000E+00  0.0000E+00  0.0000E+00  0.0000E+00  0.0000E+00  0.0000E+00  0.0000E+00  0.0000E+00  0.0000E+00
     -4.163  0.4192E-06  0.4174E-06  0.6841E-09  0.6812E-09  0.1517E-10  0.1507E-10  0.6841E-09  0.6812E-09  0.8903E-17  0.4067E-18  0.2063E-13  0.2612E-13  0.1218E-10  0.1200E-10  0.2063E-13  0.2612E-13  0.2727E-11  0.2932E-11
     -4.110  0.1385E-05  0.1379E-05  0.2810E-08  0.2798E-08  0.2125E-08  0.2116E-08  0.2810E-08  0.2798E-08  0.2504E-10  0.2567E-10  0.8388E-13  0.1218E-12  0.4278E-10  0.4247E-10  0.8388E-13  0.1218E-12  0.5154E-11  0.5540E-11
     -4.057  0.5319E-05  0.5296E-05  0.1323E-07  0.1317E-07  0.1687E-07  0.1680E-07  0.1323E-07  0.1317E-07  0.9621E-10  0.9763E-10  0.1301E-09  0.1287E-09  0.1219E-09  0.1202E-09  0.1301E-09  0.1287E-09  0.3103E-10  0.3166E-10
     -4.004  0.1376E-04  0.1371E-04  0.3537E-07  0.3522E-07  0.3590E-07  0.3574E-07  0.3537E-07  0.3522E-07  0.2289E-09  0.2328E-09  0.2461E-09  0.2436E-09  0.3863E-09  0.3814E-09  0.2461E-09  0.2436E-09  0.1367E-09  0.1399E-09
     -3.951  0.4083E-04  0.4065E-04  0.1158E-06  0.1153E-06  0.1151E-06  0.1146E-06  0.1158E-06  0.1153E-06  0.9560E-09  0.9601E-09  0.8543E-09  0.8476E-09  0.1324E-08  0.1308E-08  0.8543E-09  0.8476E-09  0.5341E-09  0.5413E-09
     -3.898  0.1166E-03  0.1162E-03  0.3373E-06  0.3359E-06  0.3604E-06  0.3588E-06  0.3373E-06  0.3359E-06  0.3028E-08  0.3035E-08  0.2988E-08  0.2965E-08  0.3869E-08  0.3826E-08  0.2988E-08  0.2965E-08  0.1501E-08  0.1519E-08
     -3.845  0.3186E-03  0.3174E-03  0.9353E-06  0.9315E-06  0.1012E-05  0.1008E-05  0.9353E-06  0.9315E-06  0.8213E-08  0.8242E-08  0.8481E-08  0.8415E-08  0.1059E-07  0.1047E-07  0.8481E-08  0.8415E-08  0.4091E-08  0.4142E-08
     -3.792  0.8086E-03  0.8058E-03  0.2543E-05  0.2533E-05  0.2733E-05  0.2722E-05  0.2543E-05  0.2533E-05  0.2373E-07  0.2380E-07  0.2375E-07  0.2358E-07  0.2799E-07  0.2766E-07  0.2375E-07  0.2358E-07  0.1138E-07  0.1150E-07
     -3.739  0.1776E-02  0.1771E-02  0.6333E-05  0.6312E-05  0.6835E-05  0.6811E-05  0.6333E-05  0.6312E-05  0.6470E-07  0.6480E-07  0.6512E-07  0.6472E-07  0.6694E-07  0.6617E-07  0.6512E-07  0.6472E-07  0.3021E-07  0.3045E-07
     -3.686  0.3165E-02  0.3159E-02  0.1359E-04  0.1355E-04  0.1459E-04  0.1455E-04  0.1359E-04  0.1355E-04  0.1564E-06  0.1562E-06  0.1573E-06  0.1566E-06  0.1412E-06  0.1397E-06  0.1573E-06  0.1566E-06  0.7452E-07  0.7475E-07
     -3.633  0.4533E-02  0.4529E-02  0.2493E-04  0.2488E-04  0.2613E-04  0.2607E-04  0.2493E-04  0.2488E-04  0.3360E-06  0.3340E-06  0.3335E-06  0.3331E-06  0.2734E-06  0.2711E-06  0.3335E-06  0.3331E-06  0.1692E-06  0.1693E-06
     -3.580  0.5683E-02  0.5679E-02  0.4126E-04  0.4118E-04  0.4224E-04  0.4216E-04  0.4126E-04  0.4118E-04  0.6596E-06  0.6520E-06  0.6381E-06  0.6382E-06  0.5111E-06  0.5080E-06  0.6381E-06  0.6382E-06  0.3495E-06  0.3492E-06
     -3.526  0.6996E-02  0.6991E-02  0.6331E-04  0.6321E-04  0.6711E-04  0.6698E-04  0.6331E-04  0.6321E-04  0.1210E-05  0.1192E-05  0.1179E-05  0.1179E-05  0.8644E-06  0.8616E-06  0.1179E-05  0.1179E-05  0.6082E-06  0.6071E-06
     -3.473  0.8159E-02  0.8157E-02  0.8511E-04  0.8503E-04  0.9630E-04  0.9618E-04  0.8511E-04  0.8503E-04  0.1965E-05  0.1939E-05  0.1973E-05  0.1972E-05  0.1216E-05  0.1215E-05  0.1973E-05  0.1972E-05  0.8629E-06  0.8608E-06
     -3.420  0.8335E-02  0.8337E-02  0.1017E-03  0.1016E-03  0.1146E-03  0.1146E-03  0.1017E-03  0.1016E-03  0.2853E-05  0.2826E-05  0.2840E-05  0.2841E-05  0.1534E-05  0.1536E-05  0.2840E-05  0.2841E-05  0.1169E-05  0.1167E-05
     -3.367  0.8439E-02  0.8437E-02  0.1283E-03  0.1281E-03  0.1311E-03  0.1310E-03  0.1283E-03  0.1281E-03  0.4127E-05  0.4102E-05  0.4057E-05  0.4064E-05  0.2137E-05  0.2139E-05  0.4057E-05  0.4064E-05  0.1882E-05  0.1884E-05
     -3.314  0.9638E-02  0.9632E-02  0.1746E-03  0.1744E-03  0.1675E-03  0.1673E-03  0.1746E-03  0.1744E-03  0.5884E-05  0.5867E-05  0.5905E-05  0.5922E-05  0.3328E-05  0.3333E-05  0.5905E-05  0.5922E-05  0.3160E-05  0.3169E-05
     -3.261  0.1081E-01  0.1081E-01  0.2149E-03  0.2148E-03  0.2151E-03  0.2149E-03  0.2149E-03  0.2148E-03  0.7711E-05  0.7707E-05  0.7707E-05  0.7730E-05  0.4928E-05  0.4942E-05  0.7707E-05  0.7730E-05  0.4394E-05  0.4413E-05
     -3.208  0.1098E-01  0.1098E-01  0.2325E-03  0.2324E-03  0.2612E-03  0.2610E-03  0.2325E-03  0.2324E-03  0.1000E-04  0.1000E-04  0.9562E-05  0.9576E-05  0.6375E-05  0.6400E-05  0.9562E-05  0.9576E-05  0.4841E-05  0.4865E-05
     -3.155  0.1097E-01  0.1097E-01  0.2528E-03  0.2527E-03  0.3027E-03  0.3025E-03  0.2528E-03  0.2527E-03  0.1375E-04  0.1375E-04  0.1277E-04  0.1276E-04  0.7302E-05  0.7330E-05  0.1277E-04  0.1276E-04  0.5013E-05  0.5027E-05
     -3.102  0.1147E-01  0.1146E-01  0.2951E-03  0.2949E-03  0.3415E-03  0.3412E-03  0.2951E-03  0.2949E-03  0.1795E-04  0.1794E-04  0.1761E-04  0.1759E-04  0.8050E-05  0.8072E-05  0.1761E-04  0.1759E-04  0.6140E-05  0.6139E-05
     -3.049  0.1183E-01  0.1183E-01  0.3348E-03  0.3346E-03  0.3754E-03  0.3752E-03  0.3348E-03  0.3346E-03  0.2006E-04  0.2005E-04  0.2204E-04  0.2203E-04  0.9115E-05  0.9136E-05  0.2204E-04  0.2203E-04  0.8403E-05  0.8398E-05
     -2.996  0.1154E-01  0.1154E-01  0.3679E-03  0.3677E-03  0.3767E-03  0.3766E-03  0.3679E-03  0.3677E-03  0.2174E-04  0.2171E-04  0.2400E-04  0.2401E-04  0.1090E-04  0.1093E-04  0.2400E-04  0.2401E-04  0.1170E-04  0.1170E-04
     -2.943  0.1177E-01  0.1176E-01  0.4337E-03  0.4333E-03  0.3803E-03  0.3800E-03  0.4337E-03  0.4333E-03  0.2846E-04  0.2839E-04  0.2669E-04  0.2669E-04  0.1423E-04  0.1426E-04  0.2669E-04  0.2669E-04  0.1573E-04  0.1574E-04
     -2.890  0.1287E-01  0.1287E-01  0.5088E-03  0.5084E-03  0.4630E-03  0.4623E-03  0.5088E-03  0.5084E-03  0.3891E-04  0.3883E-04  0.3349E-04  0.3346E-04  0.1922E-04  0.1923E-04  0.3349E-04  0.3346E-04  0.1836E-04  0.1838E-04
     -2.837  0.1378E-01  0.1378E-01  0.5488E-03  0.5486E-03  0.6038E-03  0.6030E-03  0.5488E-03  0.5486E-03  0.4691E-04  0.4683E-04  0.4292E-04  0.4287E-04  0.2442E-04  0.2439E-04  0.4292E-04  0.4287E-04  0.1931E-04  0.1930E-04
     -2.784  0.1416E-01  0.1416E-01  0.5762E-03  0.5760E-03  0.7108E-03  0.7103E-03  0.5762E-03  0.5760E-03  0.5209E-04  0.5201E-04  0.5317E-04  0.5309E-04  0.2754E-04  0.2749E-04  0.5317E-04  0.5309E-04  0.2085E-04  0.2081E-04
     -2.731  0.1370E-01  0.1370E-01  0.5844E-03  0.5844E-03  0.7427E-03  0.7424E-03  0.5844E-03  0.5844E-03  0.5631E-04  0.5624E-04  0.6169E-04  0.6159E-04  0.2791E-04  0.2785E-04  0.6169E-04  0.6159E-04  0.2168E-04  0.2163E-04
     -2.678  0.1278E-01  0.1279E-01  0.5724E-03  0.5724E-03  0.7596E-03  0.7594E-03  0.5724E-03  0.5724E-03  0.6213E-04  0.6205E-04  0.6887E-04  0.6874E-04  0.2846E-04  0.2839E-04  0.6887E-04  0.6874E-04  0.2097E-04  0.2091E-04
     -2.625  0.1240E-01  0.1240E-01  0.6173E-03  0.6169E-03  0.7504E-03  0.7505E-03  0.6173E-03  0.6169E-03  0.7497E-04  0.7486E-04  0.7456E-04  0.7443E-04  0.3131E-04  0.3123E-04  0.7456E-04  0.7443E-04  0.2446E-04  0.2438E-04
     -2.571  0.1277E-01  0.1277E-01  0.7521E-03  0.7514E-03  0.6924E-03  0.6925E-03  0.7521E-03  0.7514E-03  0.9403E-04  0.9390E-04  0.7942E-04  0.7926E-04  0.3652E-04  0.3644E-04  0.7942E-04  0.7926E-04  0.3582E-04  0.3570E-04
     -2.518  0.1377E-01  0.1377E-01  0.9045E-03  0.9040E-03  0.7298E-03  0.7292E-03  0.9045E-03  0.9040E-03  0.1083E-03  0.1082E-03  0.9464E-04  0.9437E-04  0.4364E-04  0.4358E-04  0.9464E-04  0.9437E-04  0.4968E-04  0.4956E-04
     -2.465  0.1461E-01  0.1461E-01  0.9798E-03  0.9797E-03  0.9131E-03  0.9120E-03  0.9798E-03  0.9797E-03  0.1139E-03  0.1137E-03  0.1209E-03  0.1205E-03  0.5025E-04  0.5019E-04  0.1209E-03  0.1205E-03  0.5712E-04  0.5704E-04
     -2.412  0.1494E-01  0.1494E-01  0.1006E-02  0.1006E-02  0.1127E-02  0.1126E-02  0.1006E-02  0.1006E-02  0.1275E-03  0.1272E-03  0.1441E-03  0.1437E-03  0.5769E-04  0.5759E-04  0.1441E-03  0.1437E-03  0.5806E-04  0.5799E-04
     -2.359  0.1509E-01  0.1510E-01  0.1055E-02  0.1055E-02  0.1275E-02  0.1274E-02  0.1055E-02  0.1055E-02  0.1539E-03  0.1535E-03  0.1588E-03  0.1585E-03  0.6665E-04  0.6649E-04  0.1588E-03  0.1585E-03  0.5924E-04  0.5916E-04
     -2.306  0.1434E-01  0.1435E-01  0.1038E-02  0.1039E-02  0.1325E-02  0.1325E-02  0.1038E-02  0.1039E-02  0.1697E-03  0.1695E-03  0.1658E-03  0.1654E-03  0.7103E-04  0.7086E-04  0.1658E-03  0.1654E-03  0.5656E-04  0.5651E-04
     -2.253  0.1265E-01  0.1266E-01  0.9429E-03  0.9433E-03  0.1317E-02  0.1317E-02  0.9429E-03  0.9433E-03  0.1790E-03  0.1787E-03  0.1668E-03  0.1664E-03  0.7243E-04  0.7224E-04  0.1668E-03  0.1664E-03  0.4805E-04  0.4800E-04
     -2.200  0.1195E-01  0.1196E-01  0.9693E-03  0.9687E-03  0.1348E-02  0.1348E-02  0.9693E-03  0.9687E-03  0.2098E-03  0.2094E-03  0.1815E-03  0.1810E-03  0.7864E-04  0.7844E-04  0.1815E-03  0.1810E-03  0.4806E-04  0.4794E-04
     -2.147  0.1285E-01  0.1284E-01  0.1183E-02  0.1182E-02  0.1439E-02  0.1438E-02  0.1183E-02  0.1182E-02  0.2541E-03  0.2536E-03  0.2282E-03  0.2275E-03  0.8569E-04  0.8550E-04  0.2282E-03  0.2275E-03  0.6374E-04  0.6355E-04
     -2.094  0.1415E-01  0.1415E-01  0.1462E-02  0.1461E-02  0.1583E-02  0.1582E-02  0.1462E-02  0.1461E-02  0.2843E-03  0.2839E-03  0.2934E-03  0.2926E-03  0.9023E-04  0.9004E-04  0.2934E-03  0.2926E-03  0.8843E-04  0.8820E-04
     -2.041  0.1457E-01  0.1457E-01  0.1652E-02  0.1651E-02  0.1800E-02  0.1798E-02  0.1652E-02  0.1651E-02  0.2919E-03  0.2916E-03  0.3424E-03  0.3416E-03  0.9665E-04  0.9641E-04  0.3424E-03  0.3416E-03  0.1091E-03  0.1089E-03
     -1.988  0.1379E-01  0.1380E-01  0.1706E-02  0.1706E-02  0.1999E-02  0.1999E-02  0.1706E-02  0.1706E-02  0.3023E-03  0.3019E-03  0.3653E-03  0.3646E-03  0.1023E-03  0.1021E-03  0.3653E-03  0.3646E-03  0.1153E-03  0.1151E-03
     -1.935  0.1261E-01  0.1262E-01  0.1742E-02  0.1741E-02  0.2032E-02  0.2032E-02  0.1742E-02  0.1741E-02  0.3409E-03  0.3405E-03  0.3731E-03  0.3725E-03  0.1037E-03  0.1035E-03  0.3731E-03  0.3725E-03  0.1129E-03  0.1127E-03
     -1.882  0.1128E-01  0.1129E-01  0.1795E-02  0.1795E-02  0.1890E-02  0.1890E-02  0.1795E-02  0.1795E-02  0.4017E-03  0.4012E-03  0.3655E-03  0.3650E-03  0.1031E-03  0.1029E-03  0.3655E-03  0.3650E-03  0.1083E-03  0.1082E-03
     -1.829  0.1029E-01  0.1029E-01  0.1809E-02  0.1809E-02  0.1833E-02  0.1833E-02  0.1809E-02  0.1809E-02  0.4812E-03  0.4806E-03  0.3856E-03  0.3850E-03  0.1026E-03  0.1025E-03  0.3856E-03  0.3850E-03  0.9490E-04  0.9483E-04