  16  16   1   0
  0.1430697E+02  0.3850226E-09  0.3850226E-09  0.1544170E-08  0.5000000E-15
  1.000000000000000E-004
  CAR 
 unknown system                          
     16.49900082     -3.57643298  301      8.82916067      1.00000000
     -3.576  0.0000E+00  0.0000E+00  0.0000E+00  0.0000E+00
     -3.510  0.0000E+00  0.0000E+00  0.0000E+00  0.0000E+00
     -3.443  0.0000E+00  0.0000E+00  0.0000E+00  0.0000E+00
     -3.376  0.0000E+00  0.0000E+00  0.0000E+00  0.0000E+00
     -3.309  0.0000E+00  0.0000E+00  0.0000E+00  0.0000E+00
     -3.242  0.0000E+00  0.0000E+00  0.0000E+00  0.0000E+00
     -3.175  0.0000E+00  0.0000E+00  0.0000E+00  0.0000E+00
     -3.108  0.4093E-05  0.4087E-05  0.2739E-06  0.2735E-06
     -3.041  0.3833E-04  0.3827E-04  0.2839E-05  0.2835E-05
     -2.974  0.1776E-03  0.1774E-03  0.1472E-04  0.1470E-04
     -2.907  0.6592E-03  0.6582E-03  0.5884E-04  0.5875E-04
     -2.840  0.2481E-02  0.2478E-02  0.2249E-03  0.2245E-03
     -2.773  0.9220E-02  0.9208E-02  0.8419E-03  0.8407E-03
     -2.706  0.3104E-01  0.3101E-01  0.2919E-02  0.2916E-02
     -2.640  0.8587E-01  0.8579E-01  0.8666E-02  0.8657E-02
     -2.573  0.1763E+00  0.1762E+00  0.2046E-01  0.2044E-01
     -2.506  0.2604E+00  0.2603E+00  0.3788E-01  0.3786E-01
     -2.439  0.3166E+00  0.3165E+00  0.5907E-01  0.5904E-01
     -2.372  0.4048E+00  0.4047E+00  0.8615E-01  0.8612E-01
     -2.305  0.4986E+00  0.4986E+00  0.1195E+00  0.1195E+00
     -2.238  0.4812E+00  0.4813E+00  0.1517E+00  0.1517E+00
     -2.171  0.4645E+00  0.4645E+00  0.1828E+00  0.1828E+00
     -2.104  0.5848E+00  0.5846E+00  0.2220E+00  0.2219E+00
     -2.037  0.6801E+00  0.6800E+00  0.2675E+00  0.2674E+00
     -1.970  0.6665E+00  0.6665E+00  0.3121E+00  0.3120E+00
     -1.903  0.6621E+00  0.6620E+00  0.3564E+00  0.3564E+00
     -1.837  0.7256E+00  0.7255E+00  0.4050E+00  0.4049E+00
     -1.770  0.7627E+00  0.7627E+00  0.4560E+00  0.4560E+00
     -1.703  0.7103E+00  0.7104E+00  0.5036E+00  0.5036E+00
     -1.636  0.7480E+00  0.7478E+00  0.5537E+00  0.5536E+00
     -1.569  0.8700E+00  0.8699E+00  0.6120E+00  0.6119E+00
     -1.502  0.9433E+00  0.9433E+00  0.6751E+00  0.6750E+00
     -1.435  0.9897E+00  0.9897E+00  0.7414E+00  0.7413E+00
     -1.368  0.9353E+00  0.9354E+00  0.8040E+00  0.8039E+00
     -1.301  0.8604E+00  0.8604E+00  0.8616E+00  0.8615E+00
     -1.234  0.8610E+00  0.8610E+00  0.9192E+00  0.9192E+00
     -1.167  0.9188E+00  0.9186E+00  0.9808E+00  0.9807E+00
     -1.100  0.1049E+01  0.1048E+01  0.1051E+01  0.1051E+01
     -1.034  0.1125E+01  0.1125E+01  0.1126E+01  0.1126E+01
     -0.967  0.1163E+01  0.1162E+01  0.1204E+01  0.1204E+01
     -0.900  0.1235E+01  0.1235E+01  0.1287E+01  0.1287E+01
     -0.833  0.1150E+01  0.1150E+01  0.1364E+01  0.1364E+01
     -0.766  0.9621E+00  0.9622E+00  0.1428E+01  0.1428E+01
     -0.699  0.9939E+00  0.9937E+00  0.1495E+01  0.1495E+01
     -0.632  0.1186E+01  0.1186E+01  0.1574E+01  0.1574E+01
     -0.565  0.1359E+01  0.1359E+01  0.1665E+01  0.1665E+01
     -0.498  0.1402E+01  0.1402E+01  0.1759E+01  0.1759E+01
     -0.431  0.1384E+01  0.1384E+01  0.1852E+01  0.1852E+01
     -0.364  0.1353E+01  0.1353E+01  0.1942E+01  0.1942E+01
     -0.297  0.1279E+01  0.1279E+01  0.2028E+01  0.2028E+01
     -0.231  0.1269E+01  0.1269E+01  0.2113E+01  0.2113E+01
     -0.164  0.1321E+01  0.1321E+01  0.2201E+01  0.2201E+01
     -0.097  0.1465E+01  0.1465E+01  0.2299E+01  0.2299E+01
     -0.030  0.1506E+01  0.1507E+01  0.2400E+01  0.2400E+01
      0.037  0.1359E+01  0.1359E+01  0.2491E+01  0.2491E+01
      0.104  0.1221E+01  0.1221E+01  0.2573E+01  0.2573E+01
      0.171  0.1164E+01  0.1164E+01  0.2651E+01  0.2651E+01
      0.238  0.1223E+01  0.1223E+01  0.2733E+01  0.2733E+01
      0.305  0.1399E+01  0.1399E+01  0.2827E+01  0.2827E+01
      0.372  0.1551E+01  0.1551E+01  0.2931E+01  0.2930E+01
      0.439  0.1641E+01  0.1641E+01  0.3040E+01  0.3040E+01
      0.506  0.1549E+01  0.1549E+01  0.3144E+01  0.3144E+01
      0.572  0.1383E+01  0.1384E+01  0.3237E+01  0.3237E+01
      0.639  0.1392E+01  0.1392E+01  0.3330E+01  0.3330E+01
      0.706  0.1461E+01  0.1461E+01  0.3428E+01  0.3428E+01
      0.773  0.1549E+01  0.1549E+01  0.3532E+01  0.3531E+01
      0.840  0.1664E+01  0.1664E+01  0.3643E+01  0.3643E+01
      0.907  0.1656E+01  0.1657E+01  0.3754E+01  0.3754E+01
      0.974  0.1547E+01  0.1547E+01  0.3857E+01  0.3857E+01
      1.041  0.1474E+01  0.1474E+01  0.3956E+01  0.3956E+01
      1.108  0.1553E+01  0.1553E+01  0.4060E+01  0.4060E+01
      1.175  0.1715E+01  0.1715E+01  0.4175E+01  0.4175E+01
      1.242  0.1916E+01  0.1915E+01  0.4303E+01  0.4303E+01
      1.309  0.2041E+01  0.2041E+01  0.4440E+01  0.4440E+01
      1.376  0.1912E+01  0.1912E+01  0.4568E+01  0.4568E+01
      1.442  0.1689E+01  0.1689E+01  0.4681E+01  0.4681E+01
      1.509  0.1627E+01  0.1627E+01  0.4790E+01  0.4790E+01
      1.576  0.1727E+01  0.1727E+01  0.4906E+01  0.4905E+01
      1.643  0.1746E+01  0.1746E+01  0.5022E+01  0.5022E+01
      1.710  0.1815E+01  0.1815E+01  0.5144E+01  0.5144E+01
      1.777  0.1885E+01  0.1885E+01  0.5270E+01  0.5270E+01
      1.844  0.1822E+01  0.1822E+01  0.5392E+01  0.5392E+01
      1.911  0.1863E+01  0.1863E+01  0.5517E+01  0.5517E+01
      1.978  0.2056E+01  0.2055E+01  0.5655E+01  0.5655E+01
      2.045  0.2163E+01  0.2163E+01  0.5799E+01  0.5799E+01
      2.112  0.2056E+01  0.2057E+01  0.5937E+01  0.5937E+01
      2.179  0.1929E+01  0.1929E+01  0.6066E+01  0.6066E+01
      2.245  0.1900E+01  0.1900E+01  0.6194E+01  0.6193E+01
      2.312  0.2048E+01  0.2048E+01  0.6331E+01  0.6331E+01
      2.379  0.2187E+01  0.2187E+01  0.6477E+01  0.6477E+01
      2.446  0.2312E+01  0.2312E+01  0.6632E+01  0.6632E+01
      2.513  0.2398E+01  0.2398E+01  0.6793E+01  0.6792E+01
      2.580  0.2199E+01  0.2199E+01  0.6940E+01  0.6940E+01
      2.647  0.2002E+01  0.2003E+01  0.7074E+01  0.7074E+01
      2.714  0.2070E+01  0.2070E+01  0.7212E+01  0.7212E+01
      2.781  0.2089E+01  0.2089E+01  0.7352E+01  0.7352E+01
      2.848  0.2184E+01  0.2184E+01  0.7499E+01  0.7499E+01
      2.915  0.2527E+01  0.2527E+01  0.7668E+01  0.7668E+01
      2.982  0.2710E+01  0.2710E+01  0.7849E+01  0.7849E+01
      3.048  0.2756E+01  0.2756E+01  0.8034E+01  0.8034E+01
      3.115  0.2769E+01  0.2769E+01  0.8219E+01  0.8219E+01
      3.182  0.2670E+01  0.2670E+01  0.8398E+01  0.8398E+01
      3.249  0.2648E+01  0.2649E+01  0.8575E+01  0.8575E+01
      3.316  0.2724E+01  0.2724E+01  0.8758E+01  0.8758E+01
      3.383  0.2881E+01  0.2881E+01  0.8951E+01  0.8951E+01
      3.450  0.2918E+01  0.2918E+01  0.9146E+01  0.9146E+01
      3.517  0.2736E+01  0.2736E+01  0.9329E+01  0.9329E+01
      3.584  0.2656E+01  0.2656E+01  0.9507E+01  0.9507E+01
      3.651  0.2865E+01  0.2866E+01  0.9699E+01  0.9699E+01
      3.718  0.3299E+01  0.3299E+01  0.9920E+01  0.9920E+01
      3.785  0.3389E+01  0.3389E+01  0.1015E+02  0.1015E+02
      3.851  0.3397E+01  0.3397E+01  0.1037E+02  0.1037E+02
      3.918  0.3675E+01  0.3676E+01  0.1062E+02  0.1062E+02
      3.985  0.3908E+01  0.3908E+01  0.1088E+02  0.1088E+02
      4.052  0.4110E+01  0.4111E+01  0.1116E+02  0.1116E+02
      4.119  0.4522E+01  0.4523E+01  0.1146E+02  0.1146E+02
      4.186  0.4759E+01  0.4759E+01  0.1178E+02  0.1178E+02
      4.253  0.5029E+01  0.5031E+01  0.1212E+02  0.1212E+02
      4.320  0.5859E+01  0.5861E+01  0.1251E+02  0.1251E+02
      4.387  0.6940E+01  0.6943E+01  0.1297E+02  0.1297E+02
      4.454  0.7786E+01  0.7789E+01  0.1349E+02  0.1349E+02
      4.521  0.8821E+01  0.8825E+01  0.1408E+02  0.1409E+02
      4.588  0.1058E+02  0.1059E+02  0.1479E+02  0.1479E+02
      4.654  0.1296E+02  0.1297E+02  0.1566E+02  0.1566E+02
      4.721  0.1562E+02  0.1563E+02  0.1671E+02  0.1671E+02
      4.788  0.1742E+02  0.1743E+02  0.1787E+02  0.1787E+02
      4.855  0.1787E+02  0.1788E+02  0.1907E+02  0.1907E+02
      4.922  0.1826E+02  0.1826E+02  0.2029E+02  0.2029E+02
      4.989  0.1984E+02  0.1985E+02  0.2162E+02  0.2162E+02
      5.056  0.2150E+02  0.2150E+02  0.2306E+02  0.2306E+02
      5.123  0.2003E+02  0.2002E+02  0.2440E+02  0.2440E+02
      5.190  0.1460E+02  0.1458E+02  0.2538E+02  0.2538E+02
      5.257  0.9229E+01  0.9215E+01  0.2599E+02  0.2600E+02
      5.324  0.8879E+01  0.8883E+01  0.2659E+02  0.2659E+02
      5.391  0.1195E+02  0.1196E+02  0.2739E+02  0.2739E+02
      5.458  0.1200E+02  0.1199E+02  0.2819E+02  0.2820E+02
      5.524  0.9453E+01  0.9446E+01  0.2883E+02  0.2883E+02
      5.591  0.7182E+01  0.7177E+01  0.2931E+02  0.2931E+02
      5.658  0.5911E+01  0.5908E+01  0.2971E+02  0.2971E+02
      5.725  0.5302E+01  0.5300E+01  0.3006E+02  0.3006E+02
      5.792  0.4999E+01  0.4998E+01  0.3040E+02  0.3040E+02
      5.859  0.4679E+01  0.4677E+01  0.3071E+02  0.3071E+02
      5.926  0.4456E+01  0.4455E+01  0.3101E+02  0.3101E+02
      5.993  0.4530E+01  0.4530E+01  0.3131E+02  0.3131E+02
      6.060  0.4660E+01  0.4660E+01  0.3162E+02  0.3162E+02
      6.127  0.4421E+01  0.4419E+01  0.3192E+02  0.3192E+02
      6.194  0.3861E+01  0.3860E+01  0.3218E+02  0.3218E+02
      6.261  0.3233E+01  0.3231E+01  0.3239E+02  0.3239E+02
      6.327  0.2909E+01  0.2909E+01  0.3259E+02  0.3259E+02
      6.394  0.3041E+01  0.3041E+01  0.3279E+02  0.3279E+02
      6.461  0.3307E+01  0.3307E+01  0.3301E+02  0.3301E+02
      6.528  0.3080E+01  0.3080E+01  0.3322E+02  0.3322E+02
      6.595  0.2693E+01  0.2693E+01  0.3340E+02  0.3340E+02
      6.662  0.2671E+01  0.2671E+01  0.3358E+02  0.3358E+02
      6.729  0.2801E+01  0.2801E+01  0.3377E+02  0.3377E+02
      6.796  0.2914E+01  0.2914E+01  0.3396E+02  0.3396E+02
      6.863  0.2891E+01  0.2892E+01  0.3416E+02  0.3416E+02
      6.930  0.2741E+01  0.2741E+01  0.3434E+02  0.3434E+02
      6.997  0.2680E+01  0.2680E+01  0.3452E+02  0.3452E+02
      7.064  0.2930E+01  0.2930E+01  0.3472E+02  0.3472E+02
      7.130  0.3344E+01  0.3344E+01  0.3494E+02  0.3494E+02
      7.197  0.3655E+01  0.3655E+01  0.3518E+02  0.3518E+02
      7.264  0.3570E+01  0.3570E+01  0.3542E+02  0.3542E+02
      7.331  0.3374E+01  0.3374E+01  0.3565E+02  0.3565E+02
      7.398  0.3315E+01  0.3314E+01  0.3587E+02  0.3587E+02
      7.465  0.3292E+01  0.3292E+01  0.3609E+02  0.3609E+02
      7.532  0.3287E+01  0.3287E+01  0.3631E+02  0.3631E+02
      7.599  0.3085E+01  0.3085E+01  0.3652E+02  0.3652E+02
      7.666  0.2940E+01  0.2940E+01  0.3672E+02  0.3672E+02
      7.733  0.2978E+01  0.2978E+01  0.3692E+02  0.3692E+02
      7.800  0.2882E+01  0.2882E+01  0.3711E+02  0.3711E+02
      7.867  0.2703E+01  0.2703E+01  0.3729E+02  0.3729E+02
      7.933  0.2561E+01  0.2561E+01  0.3746E+02  0.3746E+02
      8.000  0.2615E+01  0.2614E+01  0.3764E+02  0.3764E+02
      8.067  0.2949E+01  0.2949E+01  0.3783E+02  0.3783E+02
      8.134  0.3183E+01  0.3183E+01  0.3805E+02  0.3805E+02
      8.201  0.2999E+01  0.2999E+01  0.3825E+02  0.3825E+02
      8.268  0.2883E+01  0.2883E+01  0.3844E+02  0.3844E+02
      8.335  0.3038E+01  0.3038E+01  0.3864E+02  0.3864E+02
      8.402  0.2953E+01  0.2953E+01  0.3884E+02  0.3884E+02
      8.469  0.2671E+01  0.2671E+01  0.3902E+02  0.3902E+02
      8.536  0.2498E+01  0.2498E+01  0.3919E+02  0.3919E+02
      8.603  0.2681E+01  0.2681E+01  0.3937E+02  0.3937E+02
      8.670  0.2934E+01  0.2934E+01  0.3956E+02  0.3956E+02
      8.736  0.2890E+01  0.2890E+01  0.3976E+02  0.3976E+02
      8.803  0.2651E+01  0.2651E+01  0.3993E+02  0.3993E+02
      8.870  0.2529E+01  0.2529E+01  0.4010E+02  0.4010E+02
      8.937  0.2630E+01  0.2630E+01  0.4028E+02  0.4028E+02
      9.004  0.2696E+01  0.2696E+01  0.4046E+02  0.4046E+02
      9.071  0.2818E+01  0.2818E+01  0.4065E+02  0.4065E+02
      9.138  0.3120E+01  0.3120E+01  0.4086E+02  0.4086E+02
      9.205  0.3188E+01  0.3188E+01  0.4107E+02  0.4107E+02
      9.272  0.2992E+01  0.2992E+01  0.4127E+02  0.4127E+02
      9.339  0.2837E+01  0.2837E+01  0.4146E+02  0.4146E+02
      9.406  0.2772E+01  0.2772E+01  0.4165E+02  0.4165E+02
      9.473  0.2692E+01  0.2692E+01  0.4183E+02  0.4183E+02
      9.540  0.2713E+01  0.2713E+01  0.4201E+02  0.4201E+02
      9.606  0.2926E+01  0.2926E+01  0.4221E+02  0.4221E+02
      9.673  0.3006E+01  0.3006E+01  0.4241E+02  0.4241E+02
      9.740  0.2711E+01  0.2711E+01  0.4259E+02  0.4259E+02
      9.807  0.2495E+01  0.2495E+01  0.4276E+02  0.4276E+02
      9.874  0.2662E+01  0.2662E+01  0.4293E+02  0.4293E+02
      9.941  0.3021E+01  0.3021E+01  0.4314E+02  0.4314E+02
     10.008  0.3352E+01  0.3352E+01  0.4336E+02  0.4336E+02
     10.075  0.3547E+01  0.3547E+01  0.4360E+02  0.4360E+02
     10.142  0.3469E+01  0.3469E+01  0.4383E+02  0.4383E+02
     10.209  0.3279E+01  0.3279E+01  0.4405E+02  0.4405E+02
     10.276  0.3293E+01  0.3293E+01  0.4427E+02  0.4427E+02
     10.343  0.3056E+01  0.3057E+01  0.4448E+02  0.4448E+02
     10.409  0.2563E+01  0.2564E+01  0.4465E+02  0.4465E+02
     10.476  0.2179E+01  0.2180E+01  0.4479E+02  0.4479E+02
     10.543  0.2141E+01  0.2141E+01  0.4494E+02  0.4494E+02
     10.610  0.2614E+01  0.2613E+01  0.4511E+02  0.4511E+02
     10.677  0.3212E+01  0.3212E+01  0.4533E+02  0.4533E+02
     10.744  0.3542E+01  0.3541E+01  0.4556E+02  0.4556E+02
     10.811  0.3792E+01  0.3792E+01  0.4582E+02  0.4582E+02
     10.878  0.3808E+01  0.3808E+01  0.4607E+02  0.4607E+02
     10.945  0.3651E+01  0.3651E+01  0.4632E+02  0.4632E+02
     11.012  0.3613E+01  0.3613E+01  0.4656E+02  0.4656E+02
     11.079  0.3326E+01  0.3326E+01  0.4678E+02  0.4678E+02
     11.146  0.3019E+01  0.3019E+01  0.4698E+02  0.4698E+02
     11.212  0.2825E+01  0.2826E+01  0.4717E+02  0.4717E+02
     11.279  0.2819E+01  0.2819E+01  0.4736E+02  0.4736E+02
     11.346  0.3145E+01  0.3144E+01  0.4757E+02  0.4757E+02
     11.413  0.3381E+01  0.3381E+01  0.4780E+02  0.4780E+02
     11.480  0.3357E+01  0.3357E+01  0.4802E+02  0.4802E+02
     11.547  0.3174E+01  0.3174E+01  0.4824E+02  0.4824E+02
     11.614  0.3083E+01  0.3083E+01  0.4844E+02  0.4844E+02
     11.681  0.3223E+01  0.3223E+01  0.4866E+02  0.4866E+02
     11.748  0.3626E+01  0.3626E+01  0.4890E+02  0.4890E+02
     11.815  0.3902E+01  0.3902E+01  0.4916E+02  0.4916E+02
     11.882  0.3577E+01  0.3577E+01  0.4940E+02  0.4940E+02
     11.949  0.3085E+01  0.3085E+01  0.4961E+02  0.4961E+02
     12.015  0.2874E+01  0.2874E+01  0.4980E+02  0.4980E+02
     12.082  0.2834E+01  0.2834E+01  0.4999E+02  0.4999E+02
     12.149  0.2888E+01  0.2888E+01  0.5018E+02  0.5018E+02
     12.216  0.2921E+01  0.2921E+01  0.5038E+02  0.5038E+02
     12.283  0.2859E+01  0.2859E+01  0.5057E+02  0.5057E+02
     12.350  0.2879E+01  0.2880E+01  0.5076E+02  0.5076E+02
     12.417  0.2966E+01  0.2966E+01  0.5096E+02  0.5096E+02
     12.484  0.3073E+01  0.3073E+01  0.5117E+02  0.5117E+02
     12.551  0.3217E+01  0.3214E+01  0.5138E+02  0.5138E+02
     12.618  0.3072E+01  0.3068E+01  0.5159E+02  0.5159E+02
     12.685  0.3003E+01  0.2997E+01  0.5179E+02  0.5179E+02
     12.752  0.3533E+01  0.3529E+01  0.5203E+02  0.5203E+02
     12.819  0.4135E+01  0.4153E+01  0.5230E+02  0.5230E+02
     12.885  0.4169E+01  0.4213E+01  0.5258E+02  0.5259E+02
     12.952  0.3805E+01  0.3810E+01  0.5284E+02  0.5284E+02
     13.019  0.3412E+01  0.3341E+01  0.5307E+02  0.5307E+02
     13.086  0.3221E+01  0.3175E+01  0.5328E+02  0.5328E+02
     13.153  0.3246E+01  0.3256E+01  0.5350E+02  0.5350E+02
     13.220  0.3178E+01  0.3137E+01  0.5371E+02  0.5371E+02
     13.287  0.2974E+01  0.2900E+01  0.5391E+02  0.5390E+02
     13.354  0.2869E+01  0.2955E+01  0.5410E+02  0.5410E+02
     13.421  0.2584E+01  0.2771E+01  0.5428E+02  0.5428E+02
     13.488  0.2168E+01  0.2278E+01  0.5442E+02  0.5444E+02
     13.555  0.1820E+01  0.1863E+01  0.5454E+02  0.5456E+02
     13.622  0.1619E+01  0.1664E+01  0.5465E+02  0.5467E+02
     13.688  0.1478E+01  0.1484E+01  0.5475E+02  0.5477E+02
     13.755  0.1454E+01  0.1438E+01  0.5485E+02  0.5487E+02
     13.822  0.1729E+01  0.1718E+01  0.5497E+02  0.5498E+02
     13.889  0.2035E+01  0.1947E+01  0.5510E+02  0.5511E+02
     13.956  0.1946E+01  0.1773E+01  0.5523E+02  0.5523E+02
     14.023  0.1533E+01  0.1419E+01  0.5533E+02  0.5533E+02
     14.090  0.1048E+01  0.1016E+01  0.5540E+02  0.5540E+02
     14.157  0.6939E+00  0.6926E+00  0.5545E+02  0.5544E+02
     14.224  0.6015E+00  0.6176E+00  0.5549E+02  0.5548E+02
     14.291  0.8041E+00  0.7163E+00  0.5555E+02  0.5553E+02
     14.358  0.9443E+00  0.8021E+00  0.5561E+02  0.5559E+02
     14.425  0.7656E+00  0.7974E+00  0.5566E+02  0.5564E+02
     14.491  0.5034E+00  0.6685E+00  0.5569E+02  0.5568E+02
     14.558  0.3430E+00  0.4960E+00  0.5572E+02  0.5572E+02
     14.625  0.4039E+00  0.4694E+00  0.5574E+02  0.5575E+02
     14.692  0.5445E+00  0.5501E+00  0.5578E+02  0.5578E+02
     14.759  0.5795E+00  0.5602E+00  0.5582E+02  0.5582E+02
     14.826  0.4114E+00  0.3802E+00  0.5585E+02  0.5585E+02
     14.893  0.2466E+00  0.2210E+00  0.5586E+02  0.5586E+02
     14.960  0.2320E+00  0.1905E+00  0.5588E+02  0.5588E+02
     15.027  0.2821E+00  0.2531E+00  0.5590E+02  0.5589E+02
     15.094  0.3227E+00  0.3647E+00  0.5592E+02  0.5592E+02
     15.161  0.3167E+00  0.3820E+00  0.5594E+02  0.5594E+02
     15.228  0.2833E+00  0.2561E+00  0.5596E+02  0.5596E+02
     15.294  0.1746E+00  0.1230E+00  0.5597E+02  0.5597E+02
     15.361  0.8410E-01  0.7283E-01  0.5598E+02  0.5597E+02
     15.428  0.7785E-01  0.5682E-01  0.5598E+02  0.5598E+02
     15.495  0.1128E+00  0.6618E-01  0.5599E+02  0.5598E+02
     15.562  0.9711E-01  0.9867E-01  0.5600E+02  0.5599E+02
     15.629  0.4366E-01  0.9999E-01  0.5600E+02  0.5599E+02
     15.696  0.1379E-01  0.5559E-01  0.5600E+02  0.5600E+02
     15.763  0.3814E-02  0.1947E-01  0.5600E+02  0.5600E+02
     15.830  0.1015E-02  0.5586E-02  0.5600E+02  0.5600E+02
     15.897  0.0000E+00  0.1502E-02  0.5600E+02  0.5600E+02
     15.964  0.0000E+00  0.3503E-03  0.5600E+02  0.5600E+02
     16.031  0.0000E+00  0.0000E+00  0.5600E+02  0.5600E+02
     16.097  0.0000E+00  0.0000E+00  0.5600E+02  0.5600E+02
     16.164  0.0000E+00  0.0000E+00  0.5600E+02  0.5600E+02
     16.231  0.0000E+00  0.0000E+00  0.5600E+02  0.5600E+02
     16.298  0.0000E+00  0.0000E+00  0.5600E+02  0.5600E+02
     16.365  0.0000E+00  0.0000E+00  0.5600E+02  0.5600E+02
     16.432  0.0000E+00  0.0000E+00  0.5600E+02  0.5600E+02
     16.499  0.0000E+00  0.0000E+00  0.5600E+02  0.5600E+02
     16.49900082     -3.57643298  301      8.82916067      1.00000000
     -3.576  0.0000E+00  0.0000E+00  0.0000E+00  0.0000E+00  0.0000E+00  0.0000E+00  0.0000E+00  0.0000E+00  0.0000E+00  0.0000E+00  0.0000E+00  0.0000E+00  0.0000E+00  0.0000E+00  0.0000E+00  0.0000E+00  0.0000E+00  0.0000E+00
     -3.510  0.0000E+00  0.0000E+00  0.0000E+00  0.0000E+00  0.0000E+00  0.0000E+00  0.0000E+00  0.0000E+00  0.0000E+00  0.0000E+00  0.0000E+00  0.0000E+00  0.0000E+00  0.0000E+00  0.0000E+00  0.0000E+00  0.0000E+00  0.0000E+00
     -3.443  0.0000E+00  0.0000E+00  0.0000E+00  0.0000E+00  0.0000E+00  0.0000E+00  0.0000E+00  0.0000E+00  0.0000E+00  0.0000E+00  0.0000E+00  0.0000E+00  0.0000E+00  0.0000E+00  0.0000E+00  0.0000E+00  0.0000E+00  0.0000E+00
     -3.376  0.0000E+00  0.0000E+00  0.0000E+00  0.0000E+00  0.0000E+00  0.0000E+00  0.0000E+00  0.0000E+00  0.0000E+00  0.0000E+00  0.0000E+00  0.0000E+00  0.0000E+00  0.0000E+00  0.0000E+00  0.0000E+00  0.0000E+00  0.0000E+00
     -3.309  0.0000E+00  0.0000E+00  0.0000E+00  0.0000E+00  0.0000E+00  0.0000E+00  0.0000E+00  0.0000E+00  0.0000E+00  0.0000E+00  0.0000E+00  0.0000E+00  0.0000E+00  0.0000E+00  0.0000E+00  0.0000E+00  0.0000E+00  0.0000E+00
     -3.242  0.0000E+00  0.0000E+00  0.0000E+00  0.0000E+00  0.0000E+00  0.0000E+00  0.0000E+00  0.0000E+00  0.0000E+00  0.0000E+00  0.0000E+00  0.0000E+00  0.0000E+00  0.0000E+00  0.0000E+00  0.0000E+00  0.0000E+00  0.0000E+00
     -3.175  0.0000E+00  0.0000E+00  0.0000E+00  0.0000E+00  0.0000E+00  0.0000E+00  0.0000E+00  0.0000E+00  0.0000E+00  0.0000E+00  0.0000E+00  0.0000E+00  0.0000E+00  0.0000E+00  0.0000E+00  0.0000E+00  0.0000E+00  0.0000E+00
     -3.108  0.9200E-07  0.9189E-07  0.4363E-22  0.1173E-19  0.4703E-11  0.4758E-11  0.4363E-22  0.1173E-19  0.1683E-16  0.1376E-17  0.3929E-16  0.1660E-15  0.1481E-11  0.1590E-11  0.3929E-16  0.1660E-15  0.1987E-15  0.3233E-15
     -3.041  0.8561E-06  0.8551E-06  0.1358E-08  0.1356E-08  0.1403E-08  0.1402E-08  0.1358E-08  0.1356E-08  0.9486E-16  0.2059E-15  0.1236E-13  0.6897E-14  0.2264E-10  0.2260E-10  0.1236E-13  0.6897E-14  0.6086E-11  0.6042E-11
     -2.974  0.3954E-05  0.3949E-05  0.9534E-08  0.9521E-08  0.1032E-07  0.1031E-07  0.9534E-08  0.9521E-08  0.4736E-10  0.4703E-10  0.4501E-10  0.4493E-10  0.1089E-09  0.1083E-09  0.4501E-10  0.4493E-10  0.2902E-10  0.2877E-10
     -2.907  0.1467E-04  0.1465E-04  0.3656E-07  0.3651E-07  0.4029E-07  0.4024E-07  0.3656E-07  0.3651E-07  0.2230E-09  0.2222E-09  0.2302E-09  0.2296E-09  0.3880E-09  0.3863E-09  0.2302E-09  0.2296E-09  0.9858E-10  0.9775E-10
     -2.840  0.5520E-04  0.5513E-04  0.1413E-06  0.1412E-06  0.1505E-06  0.1503E-06  0.1413E-06  0.1412E-06  0.7589E-09  0.7557E-09  0.7729E-09  0.7710E-09  0.1614E-08  0.1610E-08  0.7729E-09  0.7710E-09  0.5337E-09  0.5306E-09
     -2.773  0.2050E-03  0.2047E-03  0.5649E-06  0.5641E-06  0.5933E-06  0.5925E-06  0.5649E-06  0.5641E-06  0.3477E-08  0.3471E-08  0.3383E-08  0.3378E-08  0.6451E-08  0.6428E-08  0.3383E-08  0.3378E-08  0.2367E-08  0.2358E-08
     -2.706  0.6896E-03  0.6888E-03  0.2049E-05  0.2046E-05  0.2173E-05  0.2170E-05  0.2049E-05  0.2046E-05  0.1361E-07  0.1360E-07  0.1344E-07  0.1342E-07  0.2227E-07  0.2215E-07  0.1344E-07  0.1342E-07  0.8472E-08  0.8442E-08
     -2.640  0.1904E-02  0.1902E-02  0.6549E-05  0.6541E-05  0.7058E-05  0.7051E-05  0.6549E-05  0.6541E-05  0.4740E-07  0.4735E-07  0.4680E-07  0.4674E-07  0.6598E-07  0.6542E-07  0.4680E-07  0.4674E-07  0.2745E-07  0.2737E-07
     -2.573  0.3894E-02  0.3892E-02  0.1676E-04  0.1674E-04  0.1831E-04  0.1830E-04  0.1676E-04  0.1674E-04  0.1443E-06  0.1443E-06  0.1463E-06  0.1462E-06  0.1553E-06  0.1540E-06  0.1463E-06  0.1462E-06  0.7803E-07  0.7794E-07
     -2.506  0.5719E-02  0.5718E-02  0.3296E-04  0.3294E-04  0.3479E-04  0.3476E-04  0.3296E-04  0.3294E-04  0.3440E-06  0.3452E-06  0.3507E-06  0.3508E-06  0.3159E-06  0.3146E-06  0.3507E-06  0.3508E-06  0.2054E-06  0.2057E-06
     -2.439  0.6891E-02  0.6891E-02  0.5643E-04  0.5640E-04  0.5528E-04  0.5525E-04  0.5643E-04  0.5640E-04  0.7079E-06  0.7125E-06  0.6828E-06  0.6844E-06  0.6720E-06  0.6721E-06  0.6828E-06  0.6844E-06  0.5092E-06  0.5110E-06
     -2.372  0.8721E-02  0.8719E-02  0.9306E-04  0.9301E-04  0.9491E-04  0.9486E-04  0.9306E-04  0.9301E-04  0.1427E-05  0.1439E-05  0.1383E-05  0.1389E-05  0.1314E-05  0.1314E-05  0.1383E-05  0.1389E-05  0.9930E-06  0.9980E-06
     -2.305  0.1066E-01  0.1066E-01  0.1284E-03  0.1283E-03  0.1483E-03  0.1482E-03  0.1284E-03  0.1283E-03  0.2453E-05  0.2475E-05  0.2537E-05  0.2548E-05  0.1884E-05  0.1881E-05  0.2537E-05  0.2548E-05  0.1355E-05  0.1363E-05
     -2.238  0.1021E-01  0.1021E-01  0.1413E-03  0.1413E-03  0.1667E-03  0.1667E-03  0.1413E-03  0.1413E-03  0.3452E-05  0.3478E-05  0.3498E-05  0.3514E-05  0.2148E-05  0.2140E-05  0.3498E-05  0.3514E-05  0.1594E-05  0.1602E-05
     -2.171  0.9721E-02  0.9720E-02  0.1756E-03  0.1755E-03  0.1759E-03  0.1759E-03  0.1756E-03  0.1755E-03  0.5076E-05  0.5105E-05  0.4943E-05  0.4963E-05  0.2911E-05  0.2897E-05  0.4943E-05  0.4963E-05  0.2719E-05  0.2728E-05
     -2.104  0.1209E-01  0.1209E-01  0.2644E-03  0.2643E-03  0.2392E-03  0.2391E-03  0.2644E-03  0.2643E-03  0.7653E-05  0.7690E-05  0.7876E-05  0.7904E-05  0.4986E-05  0.4968E-05  0.7876E-05  0.7904E-05  0.5388E-05  0.5405E-05
     -2.037  0.1394E-01  0.1394E-01  0.3303E-03  0.3302E-03  0.3151E-03  0.3150E-03  0.3303E-03  0.3302E-03  0.9736E-05  0.9770E-05  0.1004E-04  0.1007E-04  0.7988E-05  0.7979E-05  0.1004E-04  0.1007E-04  0.7908E-05  0.7935E-05
     -1.970  0.1352E-01  0.1352E-01  0.3333E-03  0.3332E-03  0.3834E-03  0.3833E-03  0.3333E-03  0.3332E-03  0.1229E-04  0.1231E-04  0.1169E-04  0.1171E-04  0.1062E-04  0.1064E-04  0.1169E-04  0.1171E-04  0.7997E-05  0.8024E-05
     -1.903  0.1326E-01  0.1326E-01  0.3559E-03  0.3559E-03  0.4431E-03  0.4430E-03  0.3559E-03  0.3559E-03  0.1818E-04  0.1817E-04  0.1614E-04  0.1614E-04  0.1185E-04  0.1187E-04  0.1614E-04  0.1614E-04  0.7407E-05  0.7418E-05
     -1.837  0.1436E-01  0.1436E-01  0.4398E-03  0.4397E-03  0.5001E-03  0.5000E-03  0.4398E-03  0.4397E-03  0.2489E-04  0.2487E-04  0.2392E-04  0.2390E-04  0.1259E-04  0.1261E-04  0.2392E-04  0.2390E-04  0.9584E-05  0.9582E-05
     -1.770  0.1494E-01  0.1494E-01  0.4919E-03  0.4918E-03  0.5671E-03  0.5671E-03  0.4919E-03  0.4918E-03  0.2565E-04  0.2564E-04  0.3052E-04  0.3050E-04  0.1408E-04  0.1412E-04  0.3052E-04  0.3050E-04  0.1359E-04  0.1360E-04
     -1.703  0.1374E-01  0.1375E-01  0.5138E-03  0.5137E-03  0.5276E-03  0.5277E-03  0.5138E-03  0.5137E-03  0.2495E-04  0.2497E-04  0.3027E-04  0.3029E-04  0.1656E-04  0.1664E-04  0.3027E-04  0.3029E-04  0.1956E-04  0.1961E-04
     -1.636  0.1426E-01  0.1425E-01  0.6436E-03  0.6434E-03  0.4905E-03  0.4904E-03  0.6436E-03  0.6434E-03  0.3665E-04  0.3670E-04  0.3268E-04  0.3271E-04  0.2224E-04  0.2236E-04  0.3268E-04  0.3271E-04  0.2793E-04  0.2805E-04
     -1.569  0.1636E-01  0.1636E-01  0.7729E-03  0.7728E-03  0.6530E-03  0.6527E-03  0.7729E-03  0.7728E-03  0.5382E-04  0.5390E-04  0.4347E-04  0.4351E-04  0.3189E-04  0.3206E-04  0.4347E-04  0.4351E-04  0.3151E-04  0.3167E-04
     -1.502  0.1749E-01  0.1749E-01  0.8020E-03  0.8020E-03  0.9205E-03  0.9201E-03  0.8020E-03  0.8020E-03  0.6251E-04  0.6259E-04  0.5709E-04  0.5713E-04  0.4236E-04  0.4260E-04  0.5709E-04  0.5713E-04  0.3150E-04  0.3163E-04
     -1.435  0.1812E-01  0.1812E-01  0.8526E-03  0.8526E-03  0.1080E-02  0.1080E-02  0.8526E-03  0.8526E-03  0.6769E-04  0.6775E-04  0.7225E-04  0.7229E-04  0.4729E-04  0.4757E-04  0.7225E-04  0.7229E-04  0.3608E-04  0.3622E-04
     -1.368  0.1692E-01  0.1693E-01  0.8435E-03  0.8436E-03  0.1062E-02  0.1062E-02  0.8435E-03  0.8436E-03  0.7131E-04  0.7138E-04  0.8146E-04  0.8153E-04  0.4473E-04  0.4493E-04  0.8146E-04  0.8153E-04  0.3636E-04  0.3650E-04
     -1.301  0.1532E-01  0.1532E-01  0.7759E-03  0.7759E-03  0.1113E-02  0.1113E-02  0.7759E-03  0.7759E-03  0.7706E-04  0.7717E-04  0.9104E-04  0.9112E-04  0.4540E-04  0.4551E-04  0.9104E-04  0.9112E-04  0.3026E-04  0.3035E-04
     -1.234  0.1509E-01  0.1509E-01  0.8643E-03  0.8640E-03  0.1079E-02  0.1079E-02  0.8643E-03  0.8640E-03  0.9840E-04  0.9854E-04  0.9624E-04  0.9633E-04  0.5104E-04  0.5111E-04  0.9624E-04  0.9633E-04  0.3746E-04  0.3751E-04
     -1.167  0.1585E-01  0.1585E-01  0.1131E-02  0.1131E-02  0.8860E-03  0.8861E-03  0.1131E-02  0.1131E-02  0.1301E-03  0.1303E-03  0.9629E-04  0.9635E-04  0.6016E-04  0.6018E-04  0.9629E-04  0.9635E-04  0.6454E-04  0.6455E-04
     -1.100  0.1777E-01  0.1777E-01  0.1385E-02  0.1385E-02  0.9908E-03  0.9904E-03  0.1385E-02  0.1385E-02  0.1432E-03  0.1434E-03  0.1239E-03  0.1238E-03  0.7292E-04  0.7295E-04  0.1239E-03  0.1238E-03  0.9413E-04  0.9410E-04
     -1.034  0.1872E-01  0.1872E-01  0.1426E-02  0.1426E-02  0.1345E-02  0.1345E-02  0.1426E-02  0.1426E-02  0.1383E-03  0.1383E-03  0.1681E-03  0.1680E-03  0.8118E-04  0.8124E-04  0.1681E-03  0.1680E-03  0.1018E-03  0.1017E-03
     -0.967  0.1894E-01  0.1894E-01  0.1441E-02  0.1441E-02  0.1649E-02  0.1649E-02  0.1441E-02  0.1441E-02  0.1653E-03  0.1652E-03  0.1953E-03  0.1953E-03  0.9637E-04  0.9645E-04  0.1953E-03  0.1953E-03  0.9792E-04  0.9783E-04
     -0.900  0.1969E-01  0.1969E-01  0.1585E-02  0.1585E-02  0.1843E-02  0.1843E-02  0.1585E-02  0.1585E-02  0.2128E-03  0.2126E-03  0.2106E-03  0.2106E-03  0.1190E-03  0.1192E-03  0.2106E-03  0.2106E-03  0.1059E-03  0.1058E-03
     -0.833  0.1799E-01  0.1800E-01  0.1466E-02  0.1467E-02  0.1883E-02  0.1883E-02  0.1466E-02  0.1467E-02  0.2167E-03  0.2165E-03  0.2123E-03  0.2123E-03  0.1242E-03  0.1243E-03  0.2123E-03  0.2123E-03  0.9514E-04  0.9504E-04
     -0.766  0.1468E-01  0.1469E-01  0.1206E-02  0.1206E-02  0.1776E-02  0.1776E-02  0.1206E-02  0.1206E-02  0.2220E-03  0.2218E-03  0.1971E-03  0.1970E-03  0.1232E-03  0.1233E-03  0.1971E-03  0.1970E-03  0.6862E-04  0.6857E-04
     -0.699  0.1470E-01  0.1470E-01  0.1329E-02  0.1329E-02  0.1868E-02  0.1867E-02  0.1329E-02  0.1329E-02  0.2831E-03  0.2827E-03  0.2239E-03  0.2237E-03  0.1420E-03  0.1422E-03  0.2239E-03  0.2237E-03  0.7534E-04  0.7529E-04
     -0.632  0.1720E-01  0.1720E-01  0.1749E-02  0.1748E-02  0.2062E-02  0.2061E-02  0.1749E-02  0.1748E-02  0.3498E-03  0.3494E-03  0.3162E-03  0.3159E-03  0.1518E-03  0.1520E-03  0.3162E-03  0.3159E-03  0.1151E-03  0.1150E-03
     -0.565  0.1928E-01  0.1928E-01  0.2181E-02  0.2181E-02  0.2203E-02  0.2203E-02  0.2181E-02  0.2181E-02  0.3730E-03  0.3726E-03  0.4172E-03  0.4168E-03  0.1499E-03  0.1501E-03  0.4172E-03  0.4168E-03  0.1698E-03  0.1699E-03
     -0.498  0.1904E-01  0.1905E-01  0.2357E-02  0.2357E-02  0.2387E-02  0.2387E-02  0.2357E-02  0.2357E-02  0.3515E-03  0.3512E-03  0.4513E-03  0.4510E-03  0.1648E-03  0.1650E-03  0.4513E-03  0.4510E-03  0.2103E-03  0.2104E-03
     -0.431  0.1768E-01  0.1769E-01  0.2347E-02  0.2347E-02  0.2699E-02  0.2699E-02  0.2347E-02  0.2347E-02  0.3668E-03  0.3666E-03  0.4649E-03  0.4646E-03  0.1805E-03  0.1807E-03  0.4649E-03  0.4646E-03  0.2143E-03  0.2144E-03
     -0.364  0.1619E-01  0.1620E-01  0.2377E-02  0.2377E-02  0.2823E-02  0.2823E-02  0.2377E-02  0.2377E-02  0.4358E-03  0.4355E-03  0.4633E-03  0.4631E-03  0.1800E-03  0.1803E-03  0.4633E-03  0.4631E-03  0.2074E-03  0.2073E-03
     -0.297  0.1434E-01  0.1434E-01  0.2493E-02  0.2492E-02  0.2506E-02  0.2507E-02  0.2493E-02  0.2492E-02  0.5369E-03  0.5364E-03  0.4207E-03  0.4205E-03  0.1806E-03  0.1808E-03  0.4207E-03  0.4205E-03  0.2070E-03  0.2068E-03
     -0.231  0.1365E-01  0.1365E-01  0.2514E-02  0.2514E-02  0.2571E-02  0.2571E-02  0.2514E-02  0.2514E-02  0.6639E-03  0.6632E-03  0.4787E-03  0.4783E-03  0.1836E-03  0.1838E-03  0.4787E-03  0.4783E-03  0.1777E-03  0.1776E-03