  16  16   1   0
  0.1613132E+02  0.4007379E-09  0.4007379E-09  0.1607197E-08  0.5000000E-15
  1.000000000000000E-004
  CAR 
 unknown system                          
     14.44757283     -3.96391361  301      7.50228977      1.00000000
     -3.964  0.0000E+00  0.0000E+00  0.0000E+00  0.0000E+00
     -3.903  0.0000E+00  0.0000E+00  0.0000E+00  0.0000E+00
     -3.841  0.0000E+00  0.0000E+00  0.0000E+00  0.0000E+00
     -3.780  0.0000E+00  0.0000E+00  0.0000E+00  0.0000E+00
     -3.718  0.0000E+00  0.0000E+00  0.0000E+00  0.0000E+00
     -3.657  0.0000E+00  0.0000E+00  0.0000E+00  0.0000E+00
     -3.596  0.0000E+00  0.0000E+00  0.0000E+00  0.0000E+00
     -3.534  0.9317E-05  0.9283E-05  0.5718E-06  0.5697E-06
     -3.473  0.9705E-04  0.9670E-04  0.6528E-05  0.6504E-05
     -3.412  0.3647E-03  0.3634E-03  0.2891E-04  0.2881E-04
     -3.350  0.1150E-02  0.1146E-02  0.9949E-04  0.9913E-04
     -3.289  0.3947E-02  0.3932E-02  0.3417E-03  0.3405E-03
     -3.227  0.1295E-01  0.1291E-01  0.1137E-02  0.1133E-02
     -3.166  0.3889E-01  0.3877E-01  0.3523E-02  0.3512E-02
     -3.105  0.9823E-01  0.9799E-01  0.9552E-02  0.9526E-02
     -3.043  0.1909E+00  0.1906E+00  0.2127E-01  0.2123E-01
     -2.982  0.2793E+00  0.2791E+00  0.3841E-01  0.3836E-01
     -2.921  0.3460E+00  0.3458E+00  0.5965E-01  0.5958E-01
     -2.859  0.4373E+00  0.4370E+00  0.8649E-01  0.8639E-01
     -2.798  0.5277E+00  0.5275E+00  0.1189E+00  0.1188E+00
     -2.736  0.5236E+00  0.5237E+00  0.1510E+00  0.1509E+00
     -2.675  0.5180E+00  0.5179E+00  0.1828E+00  0.1827E+00
     -2.614  0.6280E+00  0.6275E+00  0.2214E+00  0.2212E+00
     -2.552  0.7242E+00  0.7240E+00  0.2658E+00  0.2657E+00
     -2.491  0.7243E+00  0.7244E+00  0.3103E+00  0.3101E+00
     -2.430  0.7238E+00  0.7237E+00  0.3547E+00  0.3546E+00
     -2.368  0.7807E+00  0.7804E+00  0.4027E+00  0.4025E+00
     -2.307  0.8192E+00  0.8192E+00  0.4529E+00  0.4528E+00
     -2.246  0.7829E+00  0.7829E+00  0.5010E+00  0.5009E+00
     -2.184  0.8152E+00  0.8149E+00  0.5511E+00  0.5509E+00
     -2.123  0.9321E+00  0.9318E+00  0.6083E+00  0.6081E+00
     -2.061  0.1014E+01  0.1014E+01  0.6705E+00  0.6703E+00
     -2.000  0.1060E+01  0.1060E+01  0.7356E+00  0.7354E+00
     -1.939  0.1019E+01  0.1019E+01  0.7982E+00  0.7980E+00
     -1.877  0.9461E+00  0.9462E+00  0.8563E+00  0.8561E+00
     -1.816  0.9398E+00  0.9397E+00  0.9140E+00  0.9138E+00
     -1.755  0.9961E+00  0.9958E+00  0.9751E+00  0.9749E+00
     -1.693  0.1120E+01  0.1119E+01  0.1044E+01  0.1044E+01
     -1.632  0.1211E+01  0.1211E+01  0.1118E+01  0.1118E+01
     -1.570  0.1257E+01  0.1257E+01  0.1195E+01  0.1195E+01
     -1.509  0.1321E+01  0.1320E+01  0.1277E+01  0.1276E+01
     -1.448  0.1257E+01  0.1258E+01  0.1354E+01  0.1354E+01
     -1.386  0.1086E+01  0.1086E+01  0.1420E+01  0.1420E+01
     -1.325  0.1084E+01  0.1084E+01  0.1487E+01  0.1487E+01
     -1.264  0.1258E+01  0.1257E+01  0.1564E+01  0.1564E+01
     -1.202  0.1448E+01  0.1447E+01  0.1653E+01  0.1653E+01
     -1.141  0.1532E+01  0.1532E+01  0.1747E+01  0.1747E+01
     -1.079  0.1523E+01  0.1523E+01  0.1841E+01  0.1840E+01
     -1.018  0.1490E+01  0.1490E+01  0.1932E+01  0.1932E+01
     -0.957  0.1413E+01  0.1413E+01  0.2019E+01  0.2019E+01
     -0.895  0.1382E+01  0.1382E+01  0.2104E+01  0.2104E+01
     -0.834  0.1426E+01  0.1426E+01  0.2191E+01  0.2191E+01
     -0.773  0.1548E+01  0.1547E+01  0.2286E+01  0.2286E+01
     -0.711  0.1603E+01  0.1603E+01  0.2385E+01  0.2384E+01
     -0.650  0.1483E+01  0.1484E+01  0.2476E+01  0.2476E+01
     -0.588  0.1320E+01  0.1320E+01  0.2557E+01  0.2557E+01
     -0.527  0.1230E+01  0.1230E+01  0.2633E+01  0.2632E+01
     -0.466  0.1270E+01  0.1270E+01  0.2711E+01  0.2710E+01
     -0.404  0.1428E+01  0.1428E+01  0.2798E+01  0.2798E+01
     -0.343  0.1587E+01  0.1587E+01  0.2896E+01  0.2895E+01
     -0.282  0.1712E+01  0.1712E+01  0.3001E+01  0.3001E+01
     -0.220  0.1688E+01  0.1688E+01  0.3105E+01  0.3104E+01
     -0.159  0.1491E+01  0.1491E+01  0.3196E+01  0.3196E+01
     -0.098  0.1413E+01  0.1413E+01  0.3283E+01  0.3283E+01
     -0.036  0.1538E+01  0.1538E+01  0.3377E+01  0.3377E+01
      0.025  0.1636E+01  0.1635E+01  0.3478E+01  0.3477E+01
      0.087  0.1710E+01  0.1710E+01  0.3583E+01  0.3582E+01
      0.148  0.1785E+01  0.1785E+01  0.3692E+01  0.3692E+01
      0.209  0.1705E+01  0.1706E+01  0.3797E+01  0.3797E+01
      0.271  0.1576E+01  0.1576E+01  0.3894E+01  0.3894E+01
      0.332  0.1564E+01  0.1564E+01  0.3990E+01  0.3990E+01
      0.393  0.1719E+01  0.1719E+01  0.4095E+01  0.4095E+01
      0.455  0.1953E+01  0.1952E+01  0.4215E+01  0.4215E+01
      0.516  0.2142E+01  0.2142E+01  0.4347E+01  0.4347E+01
      0.578  0.2162E+01  0.2162E+01  0.4480E+01  0.4479E+01
      0.639  0.1975E+01  0.1976E+01  0.4601E+01  0.4601E+01
      0.700  0.1788E+01  0.1788E+01  0.4711E+01  0.4710E+01
      0.762  0.1781E+01  0.1781E+01  0.4820E+01  0.4820E+01
      0.823  0.1846E+01  0.1846E+01  0.4933E+01  0.4933E+01
      0.884  0.1880E+01  0.1880E+01  0.5049E+01  0.5049E+01
      0.946  0.1944E+01  0.1944E+01  0.5168E+01  0.5168E+01
      1.007  0.1928E+01  0.1928E+01  0.5287E+01  0.5286E+01
      1.069  0.1874E+01  0.1875E+01  0.5402E+01  0.5402E+01
      1.130  0.2007E+01  0.2006E+01  0.5525E+01  0.5525E+01
      1.191  0.2225E+01  0.2224E+01  0.5662E+01  0.5661E+01
      1.253  0.2291E+01  0.2291E+01  0.5802E+01  0.5802E+01
      1.314  0.2168E+01  0.2168E+01  0.5935E+01  0.5935E+01
      1.375  0.2028E+01  0.2028E+01  0.6060E+01  0.6060E+01
      1.437  0.1981E+01  0.1981E+01  0.6182E+01  0.6181E+01
      1.498  0.2094E+01  0.2094E+01  0.6310E+01  0.6310E+01
      1.560  0.2256E+01  0.2256E+01  0.6449E+01  0.6449E+01
      1.621  0.2469E+01  0.2469E+01  0.6600E+01  0.6600E+01
      1.682  0.2574E+01  0.2575E+01  0.6759E+01  0.6758E+01
      1.744  0.2379E+01  0.2380E+01  0.6905E+01  0.6904E+01
      1.805  0.2109E+01  0.2109E+01  0.7034E+01  0.7034E+01
      1.866  0.2072E+01  0.2072E+01  0.7161E+01  0.7161E+01
      1.928  0.2205E+01  0.2204E+01  0.7297E+01  0.7296E+01
      1.989  0.2345E+01  0.2345E+01  0.7441E+01  0.7440E+01
      2.051  0.2576E+01  0.2575E+01  0.7599E+01  0.7599E+01
      2.112  0.2789E+01  0.2789E+01  0.7770E+01  0.7770E+01
      2.173  0.2809E+01  0.2810E+01  0.7943E+01  0.7942E+01
      2.235  0.2782E+01  0.2782E+01  0.8113E+01  0.8113E+01
      2.296  0.2752E+01  0.2752E+01  0.8283E+01  0.8282E+01
      2.357  0.2676E+01  0.2676E+01  0.8447E+01  0.8447E+01
      2.419  0.2682E+01  0.2683E+01  0.8611E+01  0.8611E+01
      2.480  0.2855E+01  0.2855E+01  0.8787E+01  0.8787E+01
      2.541  0.3057E+01  0.3057E+01  0.8975E+01  0.8974E+01
      2.603  0.3153E+01  0.3153E+01  0.9168E+01  0.9168E+01
      2.664  0.2973E+01  0.2973E+01  0.9351E+01  0.9351E+01
      2.726  0.2736E+01  0.2737E+01  0.9519E+01  0.9519E+01
      2.787  0.2830E+01  0.2831E+01  0.9693E+01  0.9692E+01
      2.848  0.3141E+01  0.3141E+01  0.9885E+01  0.9885E+01
      2.910  0.3227E+01  0.3227E+01  0.1008E+02  0.1008E+02
      2.971  0.3243E+01  0.3243E+01  0.1028E+02  0.1028E+02
      3.032  0.3528E+01  0.3528E+01  0.1050E+02  0.1050E+02
      3.094  0.3834E+01  0.3835E+01  0.1073E+02  0.1073E+02
      3.155  0.3929E+01  0.3930E+01  0.1098E+02  0.1098E+02
      3.217  0.4092E+01  0.4093E+01  0.1123E+02  0.1123E+02
      3.278  0.4452E+01  0.4453E+01  0.1150E+02  0.1150E+02
      3.339  0.4642E+01  0.4643E+01  0.1179E+02  0.1179E+02
      3.401  0.4867E+01  0.4869E+01  0.1208E+02  0.1208E+02
      3.462  0.5544E+01  0.5548E+01  0.1242E+02  0.1243E+02
      3.523  0.6504E+01  0.6509E+01  0.1282E+02  0.1283E+02
      3.585  0.7326E+01  0.7331E+01  0.1327E+02  0.1328E+02
      3.646  0.8177E+01  0.8184E+01  0.1378E+02  0.1378E+02
      3.708  0.9820E+01  0.9832E+01  0.1438E+02  0.1438E+02
      3.769  0.1255E+02  0.1256E+02  0.1515E+02  0.1515E+02
      3.830  0.1591E+02  0.1593E+02  0.1613E+02  0.1613E+02
      3.892  0.1876E+02  0.1879E+02  0.1728E+02  0.1728E+02
      3.953  0.2019E+02  0.2021E+02  0.1852E+02  0.1852E+02
      4.014  0.2087E+02  0.2089E+02  0.1980E+02  0.1981E+02
      4.076  0.2230E+02  0.2232E+02  0.2117E+02  0.2118E+02
      4.137  0.2413E+02  0.2414E+02  0.2265E+02  0.2266E+02
      4.199  0.2344E+02  0.2341E+02  0.2409E+02  0.2410E+02
      4.260  0.1842E+02  0.1836E+02  0.2522E+02  0.2522E+02
      4.321  0.1295E+02  0.1292E+02  0.2601E+02  0.2602E+02
      4.383  0.1224E+02  0.1224E+02  0.2677E+02  0.2677E+02
      4.444  0.1410E+02  0.1410E+02  0.2763E+02  0.2764E+02
      4.505  0.1306E+02  0.1304E+02  0.2843E+02  0.2844E+02
      4.567  0.1013E+02  0.1012E+02  0.2906E+02  0.2906E+02
      4.628  0.7845E+01  0.7835E+01  0.2954E+02  0.2954E+02
      4.689  0.6643E+01  0.6637E+01  0.2995E+02  0.2995E+02
      4.751  0.6089E+01  0.6086E+01  0.3032E+02  0.3032E+02
      4.812  0.5596E+01  0.5593E+01  0.3067E+02  0.3067E+02
      4.874  0.5207E+01  0.5205E+01  0.3099E+02  0.3099E+02
      4.935  0.5190E+01  0.5189E+01  0.3130E+02  0.3131E+02
      4.996  0.5234E+01  0.5232E+01  0.3163E+02  0.3163E+02
      5.058  0.4875E+01  0.4872E+01  0.3193E+02  0.3193E+02
      5.119  0.4237E+01  0.4233E+01  0.3219E+02  0.3219E+02
      5.180  0.3688E+01  0.3685E+01  0.3241E+02  0.3241E+02
      5.242  0.3438E+01  0.3437E+01  0.3262E+02  0.3262E+02
      5.303  0.3452E+01  0.3452E+01  0.3284E+02  0.3284E+02
      5.365  0.3500E+01  0.3499E+01  0.3305E+02  0.3305E+02
      5.426  0.3262E+01  0.3261E+01  0.3325E+02  0.3325E+02
      5.487  0.3050E+01  0.3049E+01  0.3344E+02  0.3344E+02
      5.549  0.3172E+01  0.3172E+01  0.3363E+02  0.3363E+02
      5.610  0.3418E+01  0.3418E+01  0.3384E+02  0.3384E+02
      5.671  0.3729E+01  0.3729E+01  0.3407E+02  0.3407E+02
      5.733  0.3882E+01  0.3882E+01  0.3431E+02  0.3431E+02
      5.794  0.3652E+01  0.3651E+01  0.3453E+02  0.3454E+02
      5.856  0.3457E+01  0.3457E+01  0.3475E+02  0.3475E+02
      5.917  0.3668E+01  0.3667E+01  0.3497E+02  0.3497E+02
      5.978  0.3957E+01  0.3956E+01  0.3522E+02  0.3522E+02
      6.040  0.3987E+01  0.3986E+01  0.3546E+02  0.3546E+02
      6.101  0.3822E+01  0.3821E+01  0.3569E+02  0.3569E+02
      6.162  0.3616E+01  0.3616E+01  0.3592E+02  0.3592E+02
      6.224  0.3492E+01  0.3491E+01  0.3613E+02  0.3613E+02
      6.285  0.3442E+01  0.3442E+01  0.3634E+02  0.3634E+02
      6.347  0.3359E+01  0.3359E+01  0.3655E+02  0.3655E+02
      6.408  0.3299E+01  0.3298E+01  0.3675E+02  0.3675E+02
      6.469  0.3341E+01  0.3341E+01  0.3696E+02  0.3696E+02
      6.531  0.3244E+01  0.3244E+01  0.3716E+02  0.3716E+02
      6.592  0.2969E+01  0.2969E+01  0.3734E+02  0.3734E+02
      6.653  0.2685E+01  0.2684E+01  0.3750E+02  0.3750E+02
      6.715  0.2677E+01  0.2677E+01  0.3767E+02  0.3767E+02
      6.776  0.2963E+01  0.2962E+01  0.3785E+02  0.3785E+02
      6.837  0.3236E+01  0.3236E+01  0.3805E+02  0.3805E+02
      6.899  0.3197E+01  0.3197E+01  0.3824E+02  0.3824E+02
      6.960  0.3121E+01  0.3121E+01  0.3844E+02  0.3844E+02
      7.022  0.3223E+01  0.3223E+01  0.3863E+02  0.3863E+02
      7.083  0.3117E+01  0.3117E+01  0.3883E+02  0.3883E+02
      7.144  0.2802E+01  0.2802E+01  0.3900E+02  0.3900E+02
      7.206  0.2673E+01  0.2672E+01  0.3916E+02  0.3916E+02
      7.267  0.2742E+01  0.2742E+01  0.3933E+02  0.3933E+02
      7.328  0.2875E+01  0.2874E+01  0.3951E+02  0.3951E+02
      7.390  0.2998E+01  0.2998E+01  0.3969E+02  0.3969E+02
      7.451  0.2849E+01  0.2849E+01  0.3987E+02  0.3987E+02
      7.513  0.2618E+01  0.2618E+01  0.4003E+02  0.4003E+02
      7.574  0.2710E+01  0.2710E+01  0.4019E+02  0.4019E+02
      7.635  0.2976E+01  0.2975E+01  0.4038E+02  0.4038E+02
      7.697  0.3093E+01  0.3093E+01  0.4057E+02  0.4057E+02
      7.758  0.3049E+01  0.3049E+01  0.4075E+02  0.4075E+02
      7.819  0.3035E+01  0.3035E+01  0.4094E+02  0.4094E+02
      7.881  0.3145E+01  0.3145E+01  0.4113E+02  0.4113E+02
      7.942  0.3194E+01  0.3194E+01  0.4133E+02  0.4133E+02
      8.004  0.3004E+01  0.3005E+01  0.4151E+02  0.4151E+02
      8.065  0.2769E+01  0.2769E+01  0.4168E+02  0.4168E+02
      8.126  0.2884E+01  0.2883E+01  0.4186E+02  0.4186E+02
      8.188  0.3226E+01  0.3226E+01  0.4206E+02  0.4206E+02
      8.249  0.3370E+01  0.3370E+01  0.4227E+02  0.4227E+02
      8.310  0.3355E+01  0.3355E+01  0.4247E+02  0.4247E+02
      8.372  0.3268E+01  0.3268E+01  0.4267E+02  0.4267E+02
      8.433  0.3246E+01  0.3245E+01  0.4287E+02  0.4287E+02
      8.495  0.3486E+01  0.3485E+01  0.4309E+02  0.4309E+02
      8.556  0.3821E+01  0.3820E+01  0.4332E+02  0.4332E+02
      8.617  0.3837E+01  0.3837E+01  0.4356E+02  0.4356E+02
      8.679  0.3659E+01  0.3659E+01  0.4378E+02  0.4378E+02
      8.740  0.3464E+01  0.3464E+01  0.4399E+02  0.4399E+02
      8.801  0.3317E+01  0.3317E+01  0.4420E+02  0.4420E+02
      8.863  0.3415E+01  0.3415E+01  0.4441E+02  0.4441E+02
      8.924  0.3428E+01  0.3429E+01  0.4462E+02  0.4462E+02
      8.985  0.3039E+01  0.3041E+01  0.4480E+02  0.4480E+02
      9.047  0.2526E+01  0.2527E+01  0.4496E+02  0.4496E+02
      9.108  0.2364E+01  0.2364E+01  0.4510E+02  0.4510E+02
      9.170  0.2785E+01  0.2784E+01  0.4528E+02  0.4528E+02
      9.231  0.3501E+01  0.3499E+01  0.4549E+02  0.4549E+02
      9.292  0.3975E+01  0.3975E+01  0.4573E+02  0.4573E+02
      9.354  0.3902E+01  0.3902E+01  0.4597E+02  0.4597E+02
      9.415  0.3588E+01  0.3588E+01  0.4619E+02  0.4619E+02
      9.476  0.3512E+01  0.3512E+01  0.4641E+02  0.4641E+02
      9.538  0.3545E+01  0.3545E+01  0.4663E+02  0.4663E+02
      9.599  0.3504E+01  0.3504E+01  0.4684E+02  0.4684E+02
      9.661  0.3580E+01  0.3579E+01  0.4706E+02  0.4706E+02
      9.722  0.3704E+01  0.3704E+01  0.4729E+02  0.4729E+02
      9.783  0.3462E+01  0.3463E+01  0.4750E+02  0.4750E+02
      9.845  0.3293E+01  0.3293E+01  0.4771E+02  0.4770E+02
      9.906  0.3471E+01  0.3471E+01  0.4792E+02  0.4792E+02
      9.967  0.3534E+01  0.3534E+01  0.4814E+02  0.4813E+02
     10.029  0.3313E+01  0.3314E+01  0.4834E+02  0.4834E+02
     10.090  0.3177E+01  0.3177E+01  0.4853E+02  0.4853E+02
     10.152  0.3338E+01  0.3338E+01  0.4874E+02  0.4874E+02
     10.213  0.3687E+01  0.3686E+01  0.4897E+02  0.4896E+02
     10.274  0.3978E+01  0.3978E+01  0.4921E+02  0.4921E+02
     10.336  0.4016E+01  0.4016E+01  0.4946E+02  0.4946E+02
     10.397  0.3799E+01  0.3799E+01  0.4969E+02  0.4969E+02
     10.458  0.3441E+01  0.3441E+01  0.4990E+02  0.4990E+02
     10.520  0.3078E+01  0.3078E+01  0.5009E+02  0.5009E+02
     10.581  0.2893E+01  0.2893E+01  0.5027E+02  0.5027E+02
     10.643  0.2923E+01  0.2923E+01  0.5045E+02  0.5045E+02
     10.704  0.2969E+01  0.2969E+01  0.5063E+02  0.5063E+02
     10.765  0.3128E+01  0.3128E+01  0.5082E+02  0.5082E+02
     10.827  0.3417E+01  0.3417E+01  0.5103E+02  0.5103E+02
     10.888  0.3581E+01  0.3580E+01  0.5125E+02  0.5125E+02
     10.949  0.3676E+01  0.3674E+01  0.5148E+02  0.5148E+02
     11.011  0.3639E+01  0.3634E+01  0.5170E+02  0.5170E+02
     11.072  0.3600E+01  0.3591E+01  0.5192E+02  0.5192E+02
     11.134  0.3786E+01  0.3780E+01  0.5215E+02  0.5215E+02
     11.195  0.4066E+01  0.4074E+01  0.5240E+02  0.5240E+02
     11.256  0.4288E+01  0.4294E+01  0.5267E+02  0.5267E+02
     11.318  0.4324E+01  0.4296E+01  0.5293E+02  0.5293E+02
     11.379  0.4107E+01  0.4014E+01  0.5318E+02  0.5318E+02
     11.440  0.3813E+01  0.3680E+01  0.5342E+02  0.5340E+02
     11.502  0.3554E+01  0.3459E+01  0.5364E+02  0.5361E+02
     11.563  0.3115E+01  0.3113E+01  0.5383E+02  0.5381E+02
     11.624  0.2800E+01  0.2825E+01  0.5400E+02  0.5398E+02
     11.686  0.2762E+01  0.2776E+01  0.5417E+02  0.5415E+02
     11.747  0.2577E+01  0.2662E+01  0.5433E+02  0.5431E+02
     11.809  0.2206E+01  0.2332E+01  0.5446E+02  0.5446E+02
     11.870  0.1924E+01  0.2019E+01  0.5458E+02  0.5458E+02
     11.931  0.1791E+01  0.1828E+01  0.5469E+02  0.5469E+02
     11.993  0.1782E+01  0.1769E+01  0.5480E+02  0.5480E+02
     12.054  0.1815E+01  0.1807E+01  0.5491E+02  0.5491E+02
     12.115  0.1842E+01  0.1804E+01  0.5503E+02  0.5502E+02
     12.177  0.1895E+01  0.1859E+01  0.5514E+02  0.5514E+02
     12.238  0.1837E+01  0.1850E+01  0.5526E+02  0.5525E+02
     12.300  0.1613E+01  0.1622E+01  0.5535E+02  0.5535E+02
     12.361  0.1284E+01  0.1254E+01  0.5543E+02  0.5543E+02
     12.422  0.9043E+00  0.8829E+00  0.5549E+02  0.5548E+02
     12.484  0.6614E+00  0.7031E+00  0.5553E+02  0.5553E+02
     12.545  0.6888E+00  0.7458E+00  0.5557E+02  0.5557E+02
     12.606  0.8114E+00  0.8074E+00  0.5562E+02  0.5562E+02
     12.668  0.7610E+00  0.7346E+00  0.5567E+02  0.5567E+02
     12.729  0.5498E+00  0.5459E+00  0.5570E+02  0.5570E+02
     12.791  0.4315E+00  0.4381E+00  0.5573E+02  0.5573E+02
     12.852  0.4608E+00  0.4707E+00  0.5576E+02  0.5576E+02
     12.913  0.4942E+00  0.4844E+00  0.5579E+02  0.5579E+02
     12.975  0.4499E+00  0.4033E+00  0.5582E+02  0.5581E+02
     13.036  0.4126E+00  0.3539E+00  0.5584E+02  0.5583E+02
     13.097  0.3585E+00  0.3532E+00  0.5586E+02  0.5585E+02
     13.159  0.3019E+00  0.3809E+00  0.5588E+02  0.5588E+02
     13.220  0.3248E+00  0.4150E+00  0.5590E+02  0.5590E+02
     13.282  0.3557E+00  0.3546E+00  0.5592E+02  0.5592E+02
     13.343  0.3418E+00  0.3022E+00  0.5594E+02  0.5594E+02
     13.404  0.2982E+00  0.2819E+00  0.5596E+02  0.5596E+02
     13.466  0.2169E+00  0.1984E+00  0.5598E+02  0.5597E+02
     13.527  0.1696E+00  0.1373E+00  0.5599E+02  0.5598E+02
     13.588  0.1258E+00  0.1292E+00  0.5599E+02  0.5599E+02
     13.650  0.6218E-01  0.1016E+00  0.5600E+02  0.5600E+02
     13.711  0.2249E-01  0.5222E-01  0.5600E+02  0.5600E+02
     13.772  0.6809E-02  0.1881E-01  0.5600E+02  0.5600E+02
     13.834  0.1963E-02  0.5991E-02  0.5600E+02  0.5600E+02
     13.895  0.5790E-03  0.1802E-02  0.5600E+02  0.5600E+02
     13.957  0.0000E+00  0.5320E-03  0.5600E+02  0.5600E+02
     14.018  0.0000E+00  0.0000E+00  0.5600E+02  0.5600E+02
     14.079  0.0000E+00  0.0000E+00  0.5600E+02  0.5600E+02
     14.141  0.0000E+00  0.0000E+00  0.5600E+02  0.5600E+02
     14.202  0.0000E+00  0.0000E+00  0.5600E+02  0.5600E+02
     14.263  0.0000E+00  0.0000E+00  0.5600E+02  0.5600E+02
     14.325  0.0000E+00  0.0000E+00  0.5600E+02  0.5600E+02
     14.386  0.0000E+00  0.0000E+00  0.5600E+02  0.5600E+02
     14.448  0.0000E+00  0.0000E+00  0.5600E+02  0.5600E+02
     14.44757283     -3.96391361  301      7.50228977      1.00000000
     -3.964  0.0000E+00  0.0000E+00  0.0000E+00  0.0000E+00  0.0000E+00  0.0000E+00  0.0000E+00  0.0000E+00  0.0000E+00  0.0000E+00  0.0000E+00  0.0000E+00  0.0000E+00  0.0000E+00  0.0000E+00  0.0000E+00  0.0000E+00  0.0000E+00
     -3.903  0.0000E+00  0.0000E+00  0.0000E+00  0.0000E+00  0.0000E+00  0.0000E+00  0.0000E+00  0.0000E+00  0.0000E+00  0.0000E+00  0.0000E+00  0.0000E+00  0.0000E+00  0.0000E+00  0.0000E+00  0.0000E+00  0.0000E+00  0.0000E+00
     -3.841  0.0000E+00  0.0000E+00  0.0000E+00  0.0000E+00  0.0000E+00  0.0000E+00  0.0000E+00  0.0000E+00  0.0000E+00  0.0000E+00  0.0000E+00  0.0000E+00  0.0000E+00  0.0000E+00  0.0000E+00  0.0000E+00  0.0000E+00  0.0000E+00
     -3.780  0.0000E+00  0.0000E+00  0.0000E+00  0.0000E+00  0.0000E+00  0.0000E+00  0.0000E+00  0.0000E+00  0.0000E+00  0.0000E+00  0.0000E+00  0.0000E+00  0.0000E+00  0.0000E+00  0.0000E+00  0.0000E+00  0.0000E+00  0.0000E+00
     -3.718  0.0000E+00  0.0000E+00  0.0000E+00  0.0000E+00  0.0000E+00  0.0000E+00  0.0000E+00  0.0000E+00  0.0000E+00  0.0000E+00  0.0000E+00  0.0000E+00  0.0000E+00  0.0000E+00  0.0000E+00  0.0000E+00  0.0000E+00  0.0000E+00
     -3.657  0.0000E+00  0.0000E+00  0.0000E+00  0.0000E+00  0.0000E+00  0.0000E+00  0.0000E+00  0.0000E+00  0.0000E+00  0.0000E+00  0.0000E+00  0.0000E+00  0.0000E+00  0.0000E+00  0.0000E+00  0.0000E+00  0.0000E+00  0.0000E+00
     -3.596  0.0000E+00  0.0000E+00  0.0000E+00  0.0000E+00  0.0000E+00  0.0000E+00  0.0000E+00  0.0000E+00  0.0000E+00  0.0000E+00  0.0000E+00  0.0000E+00  0.0000E+00  0.0000E+00  0.0000E+00  0.0000E+00  0.0000E+00  0.0000E+00
     -3.534  0.1784E-06  0.1778E-06  0.4316E-20  0.3439E-20  0.7216E-11  0.7184E-11  0.4316E-20  0.3439E-20  0.1576E-17  0.2058E-18  0.1862E-16  0.2363E-16  0.2923E-11  0.2749E-11  0.1862E-16  0.2363E-16  0.1096E-14  0.3420E-15
     -3.473  0.1843E-05  0.1837E-05  0.4050E-08  0.4035E-08  0.2557E-08  0.2547E-08  0.4050E-08  0.4035E-08  0.2520E-10  0.2514E-10  0.1185E-12  0.1119E-12  0.5901E-10  0.5813E-10  0.1185E-12  0.1119E-12  0.1058E-10  0.1056E-10
     -3.412  0.6904E-05  0.6880E-05  0.1745E-07  0.1739E-07  0.2132E-07  0.2124E-07  0.1745E-07  0.1739E-07  0.1089E-09  0.1086E-09  0.1395E-09  0.1387E-09  0.1656E-09  0.1631E-09  0.1395E-09  0.1387E-09  0.4592E-10  0.4599E-10
     -3.350  0.2178E-04  0.2171E-04  0.5603E-07  0.5582E-07  0.5754E-07  0.5732E-07  0.5603E-07  0.5582E-07  0.3232E-09  0.3223E-09  0.3366E-09  0.3347E-09  0.6052E-09  0.5979E-09  0.3366E-09  0.3347E-09  0.2124E-09  0.2118E-09
     -3.289  0.7469E-04  0.7443E-04  0.2060E-06  0.2052E-06  0.2089E-06  0.2082E-06  0.2060E-06  0.2052E-06  0.1413E-08  0.1408E-08  0.1297E-08  0.1289E-08  0.2297E-08  0.2269E-08  0.1297E-08  0.1289E-08  0.8902E-09  0.8862E-09
     -3.227  0.2450E-03  0.2442E-03  0.6968E-06  0.6944E-06  0.7381E-06  0.7354E-06  0.6968E-06  0.6944E-06  0.5076E-08  0.5053E-08  0.4982E-08  0.4952E-08  0.7733E-08  0.7643E-08  0.4982E-08  0.4952E-08  0.2954E-08  0.2942E-08
     -3.166  0.7350E-03  0.7328E-03  0.2224E-05  0.2217E-05  0.2384E-05  0.2375E-05  0.2224E-05  0.2217E-05  0.1644E-07  0.1637E-07  0.1660E-07  0.1650E-07  0.2384E-07  0.2360E-07  0.1660E-07  0.1650E-07  0.9386E-08  0.9350E-08
     -3.105  0.1853E-02  0.1849E-02  0.6445E-05  0.6426E-05  0.6958E-05  0.6937E-05  0.6445E-05  0.6426E-05  0.5261E-07  0.5240E-07  0.5265E-07  0.5235E-07  0.6487E-07  0.6442E-07  0.5265E-07  0.5235E-07  0.2817E-07  0.2806E-07
     -3.043  0.3589E-02  0.3583E-02  0.1540E-04  0.1535E-04  0.1670E-04  0.1666E-04  0.1540E-04  0.1535E-04  0.1476E-06  0.1465E-06  0.1494E-06  0.1486E-06  0.1471E-06  0.1462E-06  0.1494E-06  0.1486E-06  0.7629E-07  0.7549E-07
     -2.982  0.5220E-02  0.5217E-02  0.2951E-04  0.2947E-04  0.3096E-04  0.3091E-04  0.2951E-04  0.2947E-04  0.3361E-06  0.3351E-06  0.3391E-06  0.3376E-06  0.2961E-06  0.2961E-06  0.3391E-06  0.3376E-06  0.1904E-06  0.1896E-06
     -2.921  0.6410E-02  0.6407E-02  0.5013E-04  0.5005E-04  0.4992E-04  0.4985E-04  0.5013E-04  0.5005E-04  0.6864E-06  0.6825E-06  0.6631E-06  0.6602E-06  0.6035E-06  0.6026E-06  0.6631E-06  0.6602E-06  0.4416E-06  0.4384E-06
     -2.859  0.8022E-02  0.8018E-02  0.8034E-04  0.8024E-04  0.8330E-04  0.8317E-04  0.8034E-04  0.8024E-04  0.1338E-05  0.1329E-05  0.1298E-05  0.1293E-05  0.1113E-05  0.1110E-05  0.1298E-05  0.1293E-05  0.8204E-06  0.8149E-06
     -2.798  0.9606E-02  0.9605E-02  0.1095E-03  0.1095E-03  0.1255E-03  0.1254E-03  0.1095E-03  0.1095E-03  0.2249E-05  0.2232E-05  0.2287E-05  0.2280E-05  0.1581E-05  0.1575E-05  0.2287E-05  0.2280E-05  0.1135E-05  0.1130E-05
     -2.736  0.9453E-02  0.9456E-02  0.1249E-03  0.1248E-03  0.1446E-03  0.1446E-03  0.1249E-03  0.1248E-03  0.3210E-05  0.3189E-05  0.3224E-05  0.3218E-05  0.1879E-05  0.1873E-05  0.3224E-05  0.3218E-05  0.1421E-05  0.1416E-05
     -2.675  0.9231E-02  0.9229E-02  0.1562E-03  0.1560E-03  0.1577E-03  0.1576E-03  0.1562E-03  0.1560E-03  0.4686E-05  0.4661E-05  0.4579E-05  0.4573E-05  0.2576E-05  0.2575E-05  0.4579E-05  0.4573E-05  0.2372E-05  0.2363E-05
     -2.614  0.1105E-01  0.1105E-01  0.2255E-03  0.2253E-03  0.2084E-03  0.2082E-03  0.2255E-03  0.2253E-03  0.6896E-05  0.6872E-05  0.7016E-05  0.7013E-05  0.4253E-05  0.4262E-05  0.7016E-05  0.7013E-05  0.4402E-05  0.4388E-05
     -2.552  0.1263E-01  0.1263E-01  0.2807E-03  0.2806E-03  0.2724E-03  0.2722E-03  0.2807E-03  0.2806E-03  0.8887E-05  0.8871E-05  0.9043E-05  0.9046E-05  0.6622E-05  0.6649E-05  0.9043E-05  0.9046E-05  0.6334E-05  0.6324E-05
     -2.491  0.1250E-01  0.1250E-01  0.2916E-03  0.2916E-03  0.3315E-03  0.3313E-03  0.2916E-03  0.2916E-03  0.1135E-04  0.1134E-04  0.1080E-04  0.1080E-04  0.8720E-05  0.8766E-05  0.1080E-04  0.1080E-04  0.6630E-05  0.6628E-05
     -2.430  0.1234E-01  0.1234E-01  0.3130E-03  0.3128E-03  0.3839E-03  0.3837E-03  0.3130E-03  0.3128E-03  0.1628E-04  0.1624E-04  0.1470E-04  0.1469E-04  0.9838E-05  0.9897E-05  0.1470E-04  0.1469E-04  0.6403E-05  0.6405E-05
     -2.368  0.1315E-01  0.1315E-01  0.3771E-03  0.3768E-03  0.4332E-03  0.4329E-03  0.3771E-03  0.3768E-03  0.2186E-04  0.2181E-04  0.2116E-04  0.2115E-04  0.1061E-04  0.1068E-04  0.2116E-04  0.2115E-04  0.8038E-05  0.8042E-05
     -2.307  0.1365E-01  0.1365E-01  0.4254E-03  0.4252E-03  0.4843E-03  0.4842E-03  0.4254E-03  0.4252E-03  0.2335E-04  0.2330E-04  0.2684E-04  0.2685E-04  0.1192E-04  0.1200E-04  0.2684E-04  0.2685E-04  0.1129E-04  0.1129E-04
     -2.246  0.1289E-01  0.1289E-01  0.4541E-03  0.4538E-03  0.4656E-03  0.4656E-03  0.4541E-03  0.4538E-03  0.2372E-04  0.2366E-04  0.2773E-04  0.2773E-04  0.1413E-04  0.1419E-04  0.2773E-04  0.2773E-04  0.1610E-04  0.1608E-04
     -2.184  0.1322E-01  0.1321E-01  0.5527E-03  0.5522E-03  0.4464E-03  0.4462E-03  0.5527E-03  0.5522E-03  0.3299E-04  0.3289E-04  0.3013E-04  0.3011E-04  0.1878E-04  0.1881E-04  0.3013E-04  0.3011E-04  0.2248E-04  0.2243E-04
     -2.123  0.1490E-01  0.1490E-01  0.6600E-03  0.6597E-03  0.5705E-03  0.5698E-03  0.6600E-03  0.6597E-03  0.4734E-04  0.4724E-04  0.3910E-04  0.3906E-04  0.2636E-04  0.2638E-04  0.3910E-04  0.3906E-04  0.2584E-04  0.2579E-04
     -2.061  0.1598E-01  0.1598E-01  0.6970E-03  0.6968E-03  0.7821E-03  0.7814E-03  0.6970E-03  0.6968E-03  0.5601E-04  0.5592E-04  0.5097E-04  0.5093E-04  0.3446E-04  0.3447E-04  0.5097E-04  0.5093E-04  0.2632E-04  0.2627E-04
     -2.000  0.1648E-01  0.1649E-01  0.7347E-03  0.7345E-03  0.9227E-03  0.9225E-03  0.7347E-03  0.7345E-03  0.6110E-04  0.6101E-04  0.6398E-04  0.6394E-04  0.3873E-04  0.3876E-04  0.6398E-04  0.6394E-04  0.2925E-04  0.2921E-04
     -1.939  0.1566E-01  0.1566E-01  0.7359E-03  0.7359E-03  0.9324E-03  0.9323E-03  0.7359E-03  0.7359E-03  0.6504E-04  0.6494E-04  0.7318E-04  0.7317E-04  0.3770E-04  0.3776E-04  0.7318E-04  0.7317E-04  0.2999E-04  0.2997E-04
     -1.877  0.1431E-01  0.1431E-01  0.6935E-03  0.6935E-03  0.9616E-03  0.9614E-03  0.6935E-03  0.6935E-03  0.7074E-04  0.7066E-04  0.8146E-04  0.8147E-04  0.3806E-04  0.3809E-04  0.8146E-04  0.8147E-04  0.2655E-04  0.2655E-04
     -1.816  0.1398E-01  0.1398E-01  0.7578E-03  0.7572E-03  0.9430E-03  0.9433E-03  0.7578E-03  0.7572E-03  0.8799E-04  0.8791E-04  0.8708E-04  0.8712E-04  0.4235E-04  0.4236E-04  0.8708E-04  0.8712E-04  0.3163E-04  0.3161E-04
     -1.755  0.1457E-01  0.1456E-01  0.9646E-03  0.9637E-03  0.8130E-03  0.8131E-03  0.9646E-03  0.9637E-03  0.1143E-03  0.1142E-03  0.8936E-04  0.8938E-04  0.4971E-04  0.4970E-04  0.8936E-04  0.8938E-04  0.5109E-04  0.5104E-04
     -1.693  0.1607E-01  0.1607E-01  0.1178E-02  0.1178E-02  0.8742E-03  0.8735E-03  0.1178E-02  0.1178E-02  0.1289E-03  0.1289E-03  0.1104E-03  0.1104E-03  0.5996E-04  0.5993E-04  0.1104E-03  0.1104E-03  0.7361E-04  0.7359E-04
     -1.632  0.1705E-01  0.1705E-01  0.1244E-02  0.1243E-02  0.1152E-02  0.1151E-02  0.1244E-02  0.1243E-02  0.1287E-03  0.1287E-03  0.1469E-03  0.1469E-03  0.6788E-04  0.6785E-04  0.1469E-03  0.1469E-03  0.8220E-04  0.8223E-04
     -1.570  0.1731E-01  0.1732E-01  0.1259E-02  0.1259E-02  0.1427E-02  0.1426E-02  0.1259E-02  0.1259E-02  0.1481E-03  0.1479E-03  0.1735E-03  0.1735E-03  0.7917E-04  0.7915E-04  0.1735E-03  0.1735E-03  0.8061E-04  0.8062E-04
     -1.509  0.1778E-01  0.1778E-01  0.1356E-02  0.1356E-02  0.1605E-02  0.1604E-02  0.1356E-02  0.1356E-02  0.1867E-03  0.1866E-03  0.1886E-03  0.1885E-03  0.9536E-04  0.9539E-04  0.1886E-03  0.1885E-03  0.8458E-04  0.8453E-04
     -1.448  0.1660E-01  0.1661E-01  0.1297E-02  0.1298E-02  0.1651E-02  0.1651E-02  0.1297E-02  0.1298E-02  0.1981E-03  0.1981E-03  0.1928E-03  0.1929E-03  0.1008E-03  0.1009E-03  0.1928E-03  0.1929E-03  0.7873E-04  0.7873E-04
     -1.386  0.1397E-01  0.1398E-01  0.1106E-02  0.1106E-02  0.1594E-02  0.1594E-02  0.1106E-02  0.1106E-02  0.2035E-03  0.2034E-03  0.1851E-03  0.1852E-03  0.1009E-03  0.1010E-03  0.1851E-03  0.1852E-03  0.6067E-04  0.6067E-04
     -1.325  0.1350E-01  0.1350E-01  0.1166E-02  0.1166E-02  0.1645E-02  0.1645E-02  0.1166E-02  0.1166E-02  0.2495E-03  0.2492E-03  0.2041E-03  0.2041E-03  0.1129E-03  0.1130E-03  0.2041E-03  0.2041E-03  0.6240E-04  0.6236E-04
     -1.264  0.1528E-01  0.1527E-01  0.1493E-02  0.1491E-02  0.1787E-02  0.1786E-02  0.1493E-02  0.1491E-02  0.3078E-03  0.3075E-03  0.2742E-03  0.2740E-03  0.1226E-03  0.1226E-03  0.2742E-03  0.2740E-03  0.9037E-04  0.9022E-04
     -1.202  0.1714E-01  0.1713E-01  0.1869E-02  0.1868E-02  0.1934E-02  0.1933E-02  0.1869E-02  0.1868E-02  0.3367E-03  0.3365E-03  0.3615E-03  0.3613E-03  0.1244E-03  0.1244E-03  0.3615E-03  0.3613E-03  0.1313E-03  0.1311E-03
     -1.141  0.1732E-01  0.1733E-01  0.2070E-02  0.2069E-02  0.2149E-02  0.2147E-02  0.2070E-02  0.2069E-02  0.3290E-03  0.3290E-03  0.4068E-03  0.4068E-03  0.1344E-03  0.1343E-03  0.4068E-03  0.4068E-03  0.1639E-03  0.1638E-03
     -1.079  0.1614E-01  0.1614E-01  0.2084E-02  0.2084E-02  0.2424E-02  0.2422E-02  0.2084E-02  0.2084E-02  0.3378E-03  0.3377E-03  0.4227E-03  0.4227E-03  0.1453E-03  0.1452E-03  0.4227E-03  0.4227E-03  0.1699E-03  0.1699E-03
     -1.018  0.1479E-01  0.1479E-01  0.2117E-02  0.2116E-02  0.2519E-02  0.2519E-02  0.2117E-02  0.2116E-02  0.3928E-03  0.3927E-03  0.4268E-03  0.4270E-03  0.1466E-03  0.1465E-03  0.4268E-03  0.4270E-03  0.1650E-03  0.1650E-03
     -0.957  0.1315E-01  0.1316E-01  0.2203E-02  0.2203E-02  0.2268E-02  0.2269E-02  0.2203E-02  0.2203E-02  0.4749E-03  0.4745E-03  0.4001E-03  0.4004E-03  0.1460E-03  0.1459E-03  0.4001E-03  0.4004E-03  0.1621E-03  0.1622E-03
     -0.895  0.1221E-01  0.1221E-01  0.2223E-02  0.2223E-02  0.2259E-02  0.2258E-02  0.2223E-02  0.2223E-02  0.5814E-03  0.5808E-03  0.4346E-03  0.4345E-03  0.1472E-03  0.1470E-03  0.4346E-03  0.4345E-03  0.1409E-03  0.1411E-03