   2   2   1   0
  0.1014704E+02  0.2727657E-09  0.2727657E-09  0.2727657E-09  0.5000000E-15
  1.000000000000000E-004
  CAR 
 unknown system                          
     30.94765630    -53.70845544  301     13.73103585      1.00000000
    -53.708  0.0000E+00  0.0000E+00  0.0000E+00  0.0000E+00
    -53.426  0.0000E+00  0.0000E+00  0.0000E+00  0.0000E+00
    -53.144  0.0000E+00  0.0000E+00  0.0000E+00  0.0000E+00
    -52.862  0.0000E+00  0.0000E+00  0.0000E+00  0.0000E+00
    -52.580  0.0000E+00  0.0000E+00  0.0000E+00  0.0000E+00
    -52.298  0.0000E+00  0.0000E+00  0.0000E+00  0.0000E+00
    -52.015  0.0000E+00  0.0000E+00  0.0000E+00  0.0000E+00
    -51.733  0.0000E+00  0.0000E+00  0.0000E+00  0.0000E+00
    -51.451  0.0000E+00  0.0000E+00  0.0000E+00  0.0000E+00
    -51.169  0.0000E+00  0.0000E+00  0.0000E+00  0.0000E+00
    -50.887  0.0000E+00  0.0000E+00  0.0000E+00  0.0000E+00
    -50.604  0.0000E+00  0.0000E+00  0.0000E+00  0.0000E+00
    -50.322  0.4982E-05  0.5062E-05  0.1406E-05  0.1428E-05
    -50.040  0.1455E-02  0.1478E-02  0.4119E-03  0.4185E-03
    -49.758  0.1644E+00  0.1658E+00  0.4679E-01  0.4720E-01
    -49.476  0.1124E+01  0.1128E+01  0.3639E+00  0.3656E+00
    -49.193  0.3856E+01  0.3862E+01  0.1456E+01  0.1460E+01
    -48.911  0.1786E+01  0.1775E+01  0.1975E+01  0.1975E+01
    -48.629  0.6113E-01  0.6037E-01  0.2000E+01  0.2000E+01
    -48.347  0.0000E+00  0.0000E+00  0.2000E+01  0.2000E+01
    -48.065  0.0000E+00  0.0000E+00  0.2000E+01  0.2000E+01
    -47.783  0.0000E+00  0.0000E+00  0.2000E+01  0.2000E+01
    -47.500  0.0000E+00  0.0000E+00  0.2000E+01  0.2000E+01
    -47.218  0.0000E+00  0.0000E+00  0.2000E+01  0.2000E+01
    -46.936  0.0000E+00  0.0000E+00  0.2000E+01  0.2000E+01
    -46.654  0.0000E+00  0.0000E+00  0.2000E+01  0.2000E+01
    -46.372  0.0000E+00  0.0000E+00  0.2000E+01  0.2000E+01
    -46.089  0.0000E+00  0.0000E+00  0.2000E+01  0.2000E+01
    -45.807  0.0000E+00  0.0000E+00  0.2000E+01  0.2000E+01
    -45.525  0.0000E+00  0.0000E+00  0.2000E+01  0.2000E+01
    -45.243  0.0000E+00  0.0000E+00  0.2000E+01  0.2000E+01
    -44.961  0.0000E+00  0.0000E+00  0.2000E+01  0.2000E+01
    -44.678  0.0000E+00  0.0000E+00  0.2000E+01  0.2000E+01
    -44.396  0.0000E+00  0.0000E+00  0.2000E+01  0.2000E+01
    -44.114  0.0000E+00  0.0000E+00  0.2000E+01  0.2000E+01
    -43.832  0.0000E+00  0.0000E+00  0.2000E+01  0.2000E+01
    -43.550  0.0000E+00  0.0000E+00  0.2000E+01  0.2000E+01
    -43.268  0.0000E+00  0.0000E+00  0.2000E+01  0.2000E+01
    -42.985  0.0000E+00  0.0000E+00  0.2000E+01  0.2000E+01
    -42.703  0.0000E+00  0.0000E+00  0.2000E+01  0.2000E+01
    -42.421  0.0000E+00  0.0000E+00  0.2000E+01  0.2000E+01
    -42.139  0.0000E+00  0.0000E+00  0.2000E+01  0.2000E+01
    -41.857  0.0000E+00  0.0000E+00  0.2000E+01  0.2000E+01
    -41.574  0.0000E+00  0.0000E+00  0.2000E+01  0.2000E+01
    -41.292  0.0000E+00  0.0000E+00  0.2000E+01  0.2000E+01
    -41.010  0.0000E+00  0.0000E+00  0.2000E+01  0.2000E+01
    -40.728  0.0000E+00  0.0000E+00  0.2000E+01  0.2000E+01
    -40.446  0.0000E+00  0.0000E+00  0.2000E+01  0.2000E+01
    -40.163  0.0000E+00  0.0000E+00  0.2000E+01  0.2000E+01
    -39.881  0.0000E+00  0.0000E+00  0.2000E+01  0.2000E+01
    -39.599  0.0000E+00  0.0000E+00  0.2000E+01  0.2000E+01
    -39.317  0.0000E+00  0.0000E+00  0.2000E+01  0.2000E+01
    -39.035  0.0000E+00  0.0000E+00  0.2000E+01  0.2000E+01
    -38.753  0.0000E+00  0.0000E+00  0.2000E+01  0.2000E+01
    -38.470  0.0000E+00  0.0000E+00  0.2000E+01  0.2000E+01
    -38.188  0.0000E+00  0.0000E+00  0.2000E+01  0.2000E+01
    -37.906  0.0000E+00  0.0000E+00  0.2000E+01  0.2000E+01
    -37.624  0.0000E+00  0.0000E+00  0.2000E+01  0.2000E+01
    -37.342  0.0000E+00  0.0000E+00  0.2000E+01  0.2000E+01
    -37.059  0.0000E+00  0.0000E+00  0.2000E+01  0.2000E+01
    -36.777  0.0000E+00  0.0000E+00  0.2000E+01  0.2000E+01
    -36.495  0.0000E+00  0.0000E+00  0.2000E+01  0.2000E+01
    -36.213  0.0000E+00  0.0000E+00  0.2000E+01  0.2000E+01
    -35.931  0.0000E+00  0.0000E+00  0.2000E+01  0.2000E+01
    -35.648  0.0000E+00  0.0000E+00  0.2000E+01  0.2000E+01
    -35.366  0.0000E+00  0.0000E+00  0.2000E+01  0.2000E+01
    -35.084  0.0000E+00  0.0000E+00  0.2000E+01  0.2000E+01
    -34.802  0.0000E+00  0.0000E+00  0.2000E+01  0.2000E+01
    -34.520  0.0000E+00  0.0000E+00  0.2000E+01  0.2000E+01
    -34.238  0.0000E+00  0.0000E+00  0.2000E+01  0.2000E+01
    -33.955  0.0000E+00  0.0000E+00  0.2000E+01  0.2000E+01
    -33.673  0.0000E+00  0.0000E+00  0.2000E+01  0.2000E+01
    -33.391  0.0000E+00  0.0000E+00  0.2000E+01  0.2000E+01
    -33.109  0.0000E+00  0.0000E+00  0.2000E+01  0.2000E+01
    -32.827  0.0000E+00  0.0000E+00  0.2000E+01  0.2000E+01
    -32.544  0.0000E+00  0.0000E+00  0.2000E+01  0.2000E+01
    -32.262  0.0000E+00  0.0000E+00  0.2000E+01  0.2000E+01
    -31.980  0.0000E+00  0.0000E+00  0.2000E+01  0.2000E+01
    -31.698  0.0000E+00  0.0000E+00  0.2000E+01  0.2000E+01
    -31.416  0.0000E+00  0.0000E+00  0.2000E+01  0.2000E+01
    -31.133  0.0000E+00  0.0000E+00  0.2000E+01  0.2000E+01
    -30.851  0.0000E+00  0.0000E+00  0.2000E+01  0.2000E+01
    -30.569  0.0000E+00  0.0000E+00  0.2000E+01  0.2000E+01
    -30.287  0.0000E+00  0.0000E+00  0.2000E+01  0.2000E+01
    -30.005  0.0000E+00  0.0000E+00  0.2000E+01  0.2000E+01
    -29.723  0.0000E+00  0.0000E+00  0.2000E+01  0.2000E+01
    -29.440  0.0000E+00  0.0000E+00  0.2000E+01  0.2000E+01
    -29.158  0.0000E+00  0.0000E+00  0.2000E+01  0.2000E+01
    -28.876  0.0000E+00  0.0000E+00  0.2000E+01  0.2000E+01
    -28.594  0.0000E+00  0.0000E+00  0.2000E+01  0.2000E+01
    -28.312  0.0000E+00  0.0000E+00  0.2000E+01  0.2000E+01
    -28.029  0.0000E+00  0.0000E+00  0.2000E+01  0.2000E+01
    -27.747  0.0000E+00  0.0000E+00  0.2000E+01  0.2000E+01
    -27.465  0.0000E+00  0.0000E+00  0.2000E+01  0.2000E+01
    -27.183  0.0000E+00  0.0000E+00  0.2000E+01  0.2000E+01
    -26.901  0.0000E+00  0.0000E+00  0.2000E+01  0.2000E+01
    -26.618  0.0000E+00  0.0000E+00  0.2000E+01  0.2000E+01
    -26.336  0.0000E+00  0.0000E+00  0.2000E+01  0.2000E+01
    -26.054  0.0000E+00  0.0000E+00  0.2000E+01  0.2000E+01
    -25.772  0.0000E+00  0.0000E+00  0.2000E+01  0.2000E+01
    -25.490  0.0000E+00  0.0000E+00  0.2000E+01  0.2000E+01
    -25.208  0.0000E+00  0.0000E+00  0.2000E+01  0.2000E+01
    -24.925  0.3898E-04  0.3904E-04  0.2000E+01  0.2000E+01
    -24.643  0.1077E-01  0.1079E-01  0.2003E+01  0.2003E+01
    -24.361  0.6065E+00  0.6069E+00  0.2174E+01  0.2174E+01
    -24.079  0.2571E+01  0.2571E+01  0.2901E+01  0.2901E+01
    -23.797  0.2454E+01  0.2453E+01  0.3604E+01  0.3604E+01
    -23.514  0.1911E+01  0.1911E+01  0.4154E+01  0.4154E+01
    -23.232  0.2582E+01  0.2582E+01  0.4893E+01  0.4893E+01
    -22.950  0.3303E+01  0.3304E+01  0.5837E+01  0.5837E+01
    -22.668  0.3670E+01  0.3671E+01  0.6887E+01  0.6888E+01
    -22.386  0.3650E+01  0.3649E+01  0.7927E+01  0.7928E+01
    -22.104  0.1791E+00  0.1788E+00  0.8000E+01  0.8000E+01
    -21.821  0.0000E+00  0.0000E+00  0.8000E+01  0.8000E+01
    -21.539  0.0000E+00  0.0000E+00  0.8000E+01  0.8000E+01
    -21.257  0.0000E+00  0.0000E+00  0.8000E+01  0.8000E+01
    -20.975  0.0000E+00  0.0000E+00  0.8000E+01  0.8000E+01
    -20.693  0.0000E+00  0.0000E+00  0.8000E+01  0.8000E+01
    -20.410  0.0000E+00  0.0000E+00  0.8000E+01  0.8000E+01
    -20.128  0.0000E+00  0.0000E+00  0.8000E+01  0.8000E+01
    -19.846  0.0000E+00  0.0000E+00  0.8000E+01  0.8000E+01
    -19.564  0.0000E+00  0.0000E+00  0.8000E+01  0.8000E+01
    -19.282  0.0000E+00  0.0000E+00  0.8000E+01  0.8000E+01
    -18.999  0.0000E+00  0.0000E+00  0.8000E+01  0.8000E+01
    -18.717  0.0000E+00  0.0000E+00  0.8000E+01  0.8000E+01
    -18.435  0.0000E+00  0.0000E+00  0.8000E+01  0.8000E+01
    -18.153  0.0000E+00  0.0000E+00  0.8000E+01  0.8000E+01
    -17.871  0.0000E+00  0.0000E+00  0.8000E+01  0.8000E+01
    -17.589  0.0000E+00  0.0000E+00  0.8000E+01  0.8000E+01
    -17.306  0.0000E+00  0.0000E+00  0.8000E+01  0.8000E+01
    -17.024  0.0000E+00  0.0000E+00  0.8000E+01  0.8000E+01
    -16.742  0.0000E+00  0.0000E+00  0.8000E+01  0.8000E+01
    -16.460  0.0000E+00  0.0000E+00  0.8000E+01  0.8000E+01
    -16.178  0.0000E+00  0.0000E+00  0.8000E+01  0.8000E+01
    -15.895  0.0000E+00  0.0000E+00  0.8000E+01  0.8000E+01
    -15.613  0.0000E+00  0.0000E+00  0.8000E+01  0.8000E+01
    -15.331  0.0000E+00  0.0000E+00  0.8000E+01  0.8000E+01
    -15.049  0.0000E+00  0.0000E+00  0.8000E+01  0.8000E+01
    -14.767  0.0000E+00  0.0000E+00  0.8000E+01  0.8000E+01
    -14.484  0.0000E+00  0.0000E+00  0.8000E+01  0.8000E+01
    -14.202  0.0000E+00  0.0000E+00  0.8000E+01  0.8000E+01
    -13.920  0.0000E+00  0.0000E+00  0.8000E+01  0.8000E+01
    -13.638  0.0000E+00  0.0000E+00  0.8000E+01  0.8000E+01
    -13.356  0.0000E+00  0.0000E+00  0.8000E+01  0.8000E+01
    -13.074  0.0000E+00  0.0000E+00  0.8000E+01  0.8000E+01
    -12.791  0.0000E+00  0.0000E+00  0.8000E+01  0.8000E+01
    -12.509  0.0000E+00  0.0000E+00  0.8000E+01  0.8000E+01
    -12.227  0.0000E+00  0.0000E+00  0.8000E+01  0.8000E+01
    -11.945  0.0000E+00  0.0000E+00  0.8000E+01  0.8000E+01
    -11.663  0.0000E+00  0.0000E+00  0.8000E+01  0.8000E+01
    -11.380  0.0000E+00  0.0000E+00  0.8000E+01  0.8000E+01
    -11.098  0.0000E+00  0.0000E+00  0.8000E+01  0.8000E+01
    -10.816  0.0000E+00  0.0000E+00  0.8000E+01  0.8000E+01
    -10.534  0.0000E+00  0.0000E+00  0.8000E+01  0.8000E+01
    -10.252  0.0000E+00  0.0000E+00  0.8000E+01  0.8000E+01
     -9.969  0.0000E+00  0.0000E+00  0.8000E+01  0.8000E+01
     -9.687  0.0000E+00  0.0000E+00  0.8000E+01  0.8000E+01
     -9.405  0.0000E+00  0.0000E+00  0.8000E+01  0.8000E+01
     -9.123  0.0000E+00  0.0000E+00  0.8000E+01  0.8000E+01
     -8.841  0.0000E+00  0.0000E+00  0.8000E+01  0.8000E+01
     -8.559  0.0000E+00  0.0000E+00  0.8000E+01  0.8000E+01
     -8.276  0.0000E+00  0.0000E+00  0.8000E+01  0.8000E+01
     -7.994  0.0000E+00  0.0000E+00  0.8000E+01  0.8000E+01
     -7.712  0.0000E+00  0.0000E+00  0.8000E+01  0.8000E+01
     -7.430  0.0000E+00  0.0000E+00  0.8000E+01  0.8000E+01
     -7.148  0.0000E+00  0.0000E+00  0.8000E+01  0.8000E+01
     -6.865  0.0000E+00  0.0000E+00  0.8000E+01  0.8000E+01
     -6.583  0.0000E+00  0.0000E+00  0.8000E+01  0.8000E+01
     -6.301  0.0000E+00  0.0000E+00  0.8000E+01  0.8000E+01
     -6.019  0.0000E+00  0.0000E+00  0.8000E+01  0.8000E+01
     -5.737  0.0000E+00  0.0000E+00  0.8000E+01  0.8000E+01
     -5.454  0.0000E+00  0.0000E+00  0.8000E+01  0.8000E+01
     -5.172  0.0000E+00  0.0000E+00  0.8000E+01  0.8000E+01
     -4.890  0.0000E+00  0.0000E+00  0.8000E+01  0.8000E+01
     -4.608  0.0000E+00  0.0000E+00  0.8000E+01  0.8000E+01
     -4.326  0.0000E+00  0.0000E+00  0.8000E+01  0.8000E+01
     -4.044  0.0000E+00  0.0000E+00  0.8000E+01  0.8000E+01
     -3.761  0.0000E+00  0.0000E+00  0.8000E+01  0.8000E+01
     -3.479  0.0000E+00  0.0000E+00  0.8000E+01  0.8000E+01
     -3.197  0.0000E+00  0.0000E+00  0.8000E+01  0.8000E+01
     -2.915  0.0000E+00  0.0000E+00  0.8000E+01  0.8000E+01
     -2.633  0.0000E+00  0.0000E+00  0.8000E+01  0.8000E+01
     -2.350  0.0000E+00  0.0000E+00  0.8000E+01  0.8000E+01
     -2.068  0.0000E+00  0.0000E+00  0.8000E+01  0.8000E+01
     -1.786  0.0000E+00  0.0000E+00  0.8000E+01  0.8000E+01
     -1.504  0.0000E+00  0.0000E+00  0.8000E+01  0.8000E+01
     -1.222  0.0000E+00  0.0000E+00  0.8000E+01  0.8000E+01
     -0.939  0.0000E+00  0.0000E+00  0.8000E+01  0.8000E+01
     -0.657  0.0000E+00  0.0000E+00  0.8000E+01  0.8000E+01
     -0.375  0.0000E+00  0.0000E+00  0.8000E+01  0.8000E+01
     -0.093  0.0000E+00  0.0000E+00  0.8000E+01  0.8000E+01
      0.189  0.0000E+00  0.0000E+00  0.8000E+01  0.8000E+01
      0.471  0.0000E+00  0.0000E+00  0.8000E+01  0.8000E+01
      0.754  0.0000E+00  0.0000E+00  0.8000E+01  0.8000E+01
      1.036  0.0000E+00  0.0000E+00  0.8000E+01  0.8000E+01
      1.318  0.0000E+00  0.0000E+00  0.8000E+01  0.8000E+01
      1.600  0.0000E+00  0.0000E+00  0.8000E+01  0.8000E+01
      1.882  0.0000E+00  0.0000E+00  0.8000E+01  0.8000E+01
      2.165  0.0000E+00  0.0000E+00  0.8000E+01  0.8000E+01
      2.447  0.0000E+00  0.0000E+00  0.8000E+01  0.8000E+01
      2.729  0.0000E+00  0.0000E+00  0.8000E+01  0.8000E+01
      3.011  0.0000E+00  0.0000E+00  0.8000E+01  0.8000E+01
      3.293  0.0000E+00  0.0000E+00  0.8000E+01  0.8000E+01
      3.576  0.0000E+00  0.0000E+00  0.8000E+01  0.8000E+01
      3.858  0.0000E+00  0.0000E+00  0.8000E+01  0.8000E+01
      4.140  0.0000E+00  0.0000E+00  0.8000E+01  0.8000E+01
      4.422  0.0000E+00  0.0000E+00  0.8000E+01  0.8000E+01
      4.704  0.0000E+00  0.0000E+00  0.8000E+01  0.8000E+01
      4.986  0.0000E+00  0.0000E+00  0.8000E+01  0.8000E+01
      5.269  0.0000E+00  0.0000E+00  0.8000E+01  0.8000E+01
      5.551  0.0000E+00  0.0000E+00  0.8000E+01  0.8000E+01
      5.833  0.0000E+00  0.0000E+00  0.8000E+01  0.8000E+01
      6.115  0.3053E-08  0.3174E-08  0.8000E+01  0.8000E+01
      6.397  0.1077E-05  0.1119E-05  0.8000E+01  0.8000E+01
      6.680  0.2775E-03  0.2873E-03  0.8000E+01  0.8000E+01
      6.962  0.9024E-02  0.9157E-02  0.8003E+01  0.8003E+01
      7.244  0.2790E-01  0.2794E-01  0.8011E+01  0.8011E+01
      7.526  0.3444E-01  0.3477E-01  0.8020E+01  0.8021E+01
      7.808  0.5639E-01  0.5610E-01  0.8037E+01  0.8037E+01
      8.091  0.4645E-01  0.4700E-01  0.8050E+01  0.8051E+01
      8.373  0.8427E-01  0.8420E-01  0.8074E+01  0.8075E+01
      8.655  0.8697E-01  0.8738E-01  0.8099E+01  0.8100E+01
      8.937  0.6811E-01  0.6781E-01  0.8119E+01  0.8119E+01
      9.219  0.1881E+00  0.1886E+00  0.8172E+01  0.8172E+01
      9.501  0.2925E+00  0.2931E+00  0.8255E+01  0.8256E+01
      9.784  0.6654E+00  0.6663E+00  0.8445E+01  0.8446E+01
     10.066  0.9454E+00  0.9470E+00  0.8716E+01  0.8717E+01
     10.348  0.1010E+01  0.1009E+01  0.9004E+01  0.9004E+01
     10.630  0.1202E+01  0.1203E+01  0.9346E+01  0.9347E+01
     10.912  0.1142E+01  0.1142E+01  0.9673E+01  0.9674E+01
     11.195  0.1079E+01  0.1078E+01  0.9982E+01  0.9983E+01
     11.477  0.6518E+00  0.6509E+00  0.1017E+02  0.1017E+02
     11.759  0.5408E+00  0.5415E+00  0.1033E+02  0.1033E+02
     12.041  0.1561E+01  0.1562E+01  0.1077E+02  0.1077E+02
     12.323  0.1615E+01  0.1614E+01  0.1123E+02  0.1123E+02
     12.605  0.1148E+01  0.1148E+01  0.1156E+02  0.1156E+02
     12.888  0.9041E+00  0.9041E+00  0.1182E+02  0.1182E+02
     13.170  0.1095E+01  0.1095E+01  0.1213E+02  0.1214E+02
     13.452  0.1520E+01  0.1522E+01  0.1257E+02  0.1257E+02
     13.734  0.1519E+01  0.1517E+01  0.1300E+02  0.1300E+02
     14.016  0.1099E+01  0.1099E+01  0.1332E+02  0.1332E+02
     14.299  0.6193E+00  0.6189E+00  0.1350E+02  0.1350E+02
     14.581  0.5235E+00  0.5232E+00  0.1365E+02  0.1365E+02
     14.863  0.3528E+00  0.3524E+00  0.1375E+02  0.1375E+02
     15.145  0.4494E+00  0.4496E+00  0.1388E+02  0.1388E+02
     15.427  0.5544E+00  0.5545E+00  0.1404E+02  0.1404E+02
     15.710  0.6248E+00  0.6242E+00  0.1422E+02  0.1422E+02
     15.992  0.9272E+00  0.9271E+00  0.1448E+02  0.1448E+02
     16.274  0.1079E+01  0.1075E+01  0.1480E+02  0.1480E+02
     16.556  0.1319E+01  0.1318E+01  0.1517E+02  0.1517E+02
     16.838  0.1377E+01  0.1376E+01  0.1557E+02  0.1557E+02
     17.120  0.1701E+01  0.1700E+01  0.1606E+02  0.1605E+02
     17.403  0.1658E+01  0.1657E+01  0.1653E+02  0.1653E+02
     17.685  0.2158E+01  0.2158E+01  0.1715E+02  0.1715E+02
     17.967  0.1567E+01  0.1570E+01  0.1760E+02  0.1760E+02
     18.249  0.9497E+00  0.9510E+00  0.1787E+02  0.1787E+02
     18.531  0.7796E+00  0.7796E+00  0.1810E+02  0.1810E+02
     18.814  0.8771E+00  0.8771E+00  0.1835E+02  0.1835E+02
     19.096  0.6309E+00  0.6311E+00  0.1853E+02  0.1853E+02
     19.378  0.3577E+00  0.3578E+00  0.1864E+02  0.1864E+02
     19.660  0.4003E+00  0.4004E+00  0.1875E+02  0.1875E+02
     19.942  0.2444E+00  0.2443E+00  0.1882E+02  0.1882E+02
     20.225  0.2355E+00  0.2359E+00  0.1889E+02  0.1889E+02
     20.507  0.3481E+00  0.3477E+00  0.1899E+02  0.1899E+02
     20.789  0.1271E+00  0.1272E+00  0.1903E+02  0.1903E+02
     21.071  0.2347E+00  0.2351E+00  0.1909E+02  0.1909E+02
     21.353  0.3632E+00  0.3634E+00  0.1920E+02  0.1920E+02
     21.635  0.2540E+00  0.2538E+00  0.1927E+02  0.1927E+02
     21.918  0.1708E+00  0.1706E+00  0.1932E+02  0.1932E+02
     22.200  0.1291E+00  0.1295E+00  0.1935E+02  0.1935E+02
     22.482  0.2957E+00  0.2956E+00  0.1944E+02  0.1944E+02
     22.764  0.2526E+00  0.2527E+00  0.1951E+02  0.1951E+02
     23.046  0.1949E+00  0.1948E+00  0.1957E+02  0.1957E+02
     23.329  0.1737E+00  0.1736E+00  0.1962E+02  0.1962E+02
     23.611  0.1298E+00  0.1303E+00  0.1965E+02  0.1965E+02
     23.893  0.1875E+00  0.1876E+00  0.1971E+02  0.1971E+02
     24.175  0.2368E+00  0.2364E+00  0.1978E+02  0.1978E+02
     24.457  0.6748E-01  0.6748E-01  0.1980E+02  0.1980E+02
     24.740  0.1636E+00  0.1640E+00  0.1984E+02  0.1984E+02
     25.022  0.1558E+00  0.1554E+00  0.1989E+02  0.1989E+02
     25.304  0.4561E-01  0.4583E-01  0.1990E+02  0.1990E+02
     25.586  0.1252E+00  0.1251E+00  0.1994E+02  0.1994E+02
     25.868  0.5619E-01  0.5622E-01  0.1995E+02  0.1995E+02
     26.150  0.7638E-01  0.7628E-01  0.1997E+02  0.1997E+02
     26.433  0.9175E-02  0.9123E-02  0.1998E+02  0.1998E+02
     26.715  0.3050E-01  0.3039E-01  0.1999E+02  0.1999E+02
     26.997  0.3020E-01  0.3029E-01  0.2000E+02  0.2000E+02
     27.279  0.1666E-01  0.1662E-01  0.2000E+02  0.2000E+02
     27.561  0.0000E+00  0.0000E+00  0.2000E+02  0.2000E+02
     27.844  0.0000E+00  0.0000E+00  0.2000E+02  0.2000E+02
     28.126  0.0000E+00  0.0000E+00  0.2000E+02  0.2000E+02
     28.408  0.0000E+00  0.0000E+00  0.2000E+02  0.2000E+02
     28.690  0.0000E+00  0.0000E+00  0.2000E+02  0.2000E+02
     28.972  0.0000E+00  0.0000E+00  0.2000E+02  0.2000E+02
     29.255  0.0000E+00  0.0000E+00  0.2000E+02  0.2000E+02
     29.537  0.0000E+00  0.0000E+00  0.2000E+02  0.2000E+02
     29.819  0.0000E+00  0.0000E+00  0.2000E+02  0.2000E+02
     30.101  0.0000E+00  0.0000E+00  0.2000E+02  0.2000E+02
     30.383  0.0000E+00  0.0000E+00  0.2000E+02  0.2000E+02
     30.665  0.0000E+00  0.0000E+00  0.2000E+02  0.2000E+02
     30.948  0.0000E+00  0.0000E+00  0.2000E+02  0.2000E+02
     30.94765630    -53.70845544  301     13.73103585      1.00000000
    -53.708  0.0000E+00  0.0000E+00  0.0000E+00  0.0000E+00  0.0000E+00  0.0000E+00  0.0000E+00  0.0000E+00  0.0000E+00  0.0000E+00  0.0000E+00  0.0000E+00  0.0000E+00  0.0000E+00  0.0000E+00  0.0000E+00  0.0000E+00  0.0000E+00
    -53.426  0.0000E+00  0.0000E+00  0.0000E+00  0.0000E+00  0.0000E+00  0.0000E+00  0.0000E+00  0.0000E+00  0.0000E+00  0.0000E+00  0.0000E+00  0.0000E+00  0.0000E+00  0.0000E+00  0.0000E+00  0.0000E+00  0.0000E+00  0.0000E+00
    -53.144  0.0000E+00  0.0000E+00  0.0000E+00  0.0000E+00  0.0000E+00  0.0000E+00  0.0000E+00  0.0000E+00  0.0000E+00  0.0000E+00  0.0000E+00  0.0000E+00  0.0000E+00  0.0000E+00  0.0000E+00  0.0000E+00  0.0000E+00  0.0000E+00
    -52.862  0.0000E+00  0.0000E+00  0.0000E+00  0.0000E+00  0.0000E+00  0.0000E+00  0.0000E+00  0.0000E+00  0.0000E+00  0.0000E+00  0.0000E+00  0.0000E+00  0.0000E+00  0.0000E+00  0.0000E+00  0.0000E+00  0.0000E+00  0.0000E+00
    -52.580  0.0000E+00  0.0000E+00  0.0000E+00  0.0000E+00  0.0000E+00  0.0000E+00  0.0000E+00  0.0000E+00  0.0000E+00  0.0000E+00  0.0000E+00  0.0000E+00  0.0000E+00  0.0000E+00  0.0000E+00  0.0000E+00  0.0000E+00  0.0000E+00
    -52.298  0.0000E+00  0.0000E+00  0.0000E+00  0.0000E+00  0.0000E+00  0.0000E+00  0.0000E+00  0.0000E+00  0.0000E+00  0.0000E+00  0.0000E+00  0.0000E+00  0.0000E+00  0.0000E+00  0.0000E+00  0.0000E+00  0.0000E+00  0.0000E+00
    -52.015  0.0000E+00  0.0000E+00  0.0000E+00  0.0000E+00  0.0000E+00  0.0000E+00  0.0000E+00  0.0000E+00  0.0000E+00  0.0000E+00  0.0000E+00  0.0000E+00  0.0000E+00  0.0000E+00  0.0000E+00  0.0000E+00  0.0000E+00  0.0000E+00
    -51.733  0.0000E+00  0.0000E+00  0.0000E+00  0.0000E+00  0.0000E+00  0.0000E+00  0.0000E+00  0.0000E+00  0.0000E+00  0.0000E+00  0.0000E+00  0.0000E+00  0.0000E+00  0.0000E+00  0.0000E+00  0.0000E+00  0.0000E+00  0.0000E+00
    -51.451  0.0000E+00  0.0000E+00  0.0000E+00  0.0000E+00  0.0000E+00  0.0000E+00  0.0000E+00  0.0000E+00  0.0000E+00  0.0000E+00  0.0000E+00  0.0000E+00  0.0000E+00  0.0000E+00  0.0000E+00  0.0000E+00  0.0000E+00  0.0000E+00
    -51.169  0.0000E+00  0.0000E+00  0.0000E+00  0.0000E+00  0.0000E+00  0.0000E+00  0.0000E+00  0.0000E+00  0.0000E+00  0.0000E+00  0.0000E+00  0.0000E+00  0.0000E+00  0.0000E+00  0.0000E+00  0.0000E+00  0.0000E+00  0.0000E+00
    -50.887  0.0000E+00  0.0000E+00  0.0000E+00  0.0000E+00  0.0000E+00  0.0000E+00  0.0000E+00  0.0000E+00  0.0000E+00  0.0000E+00  0.0000E+00  0.0000E+00  0.0000E+00  0.0000E+00  0.0000E+00  0.0000E+00  0.0000E+00  0.0000E+00
    -50.604  0.0000E+00  0.0000E+00  0.0000E+00  0.0000E+00  0.0000E+00  0.0000E+00  0.0000E+00  0.0000E+00  0.0000E+00  0.0000E+00  0.0000E+00  0.0000E+00  0.0000E+00  0.0000E+00  0.0000E+00  0.0000E+00  0.0000E+00  0.0000E+00
    -50.322  0.2467E-05  0.2507E-05  0.1662E-09  0.1688E-09  0.1662E-09  0.1688E-09  0.1662E-09  0.1688E-09  0.1399E-10  0.1422E-10  0.1399E-10  0.1422E-10  0.1361E-11  0.1386E-11  0.1399E-10  0.1422E-10  0.1361E-11  0.1386E-11
    -50.040  0.7206E-03  0.7321E-03  0.5214E-07  0.5298E-07  0.5214E-07  0.5298E-07  0.5214E-07  0.5298E-07  0.5640E-08  0.5734E-08  0.5640E-08  0.5734E-08  0.5398E-09  0.5496E-09  0.5640E-08  0.5734E-08  0.5398E-09  0.5496E-09
    -49.758  0.8145E-01  0.8216E-01  0.8099E-05  0.8187E-05  0.8099E-05  0.8187E-05  0.8099E-05  0.8187E-05  0.1195E-05  0.1210E-05  0.1195E-05  0.1210E-05  0.1104E-06  0.1120E-06  0.1195E-05  0.1210E-05  0.1104E-06  0.1120E-06
    -49.476  0.5581E+00  0.5603E+00  0.8617E-04  0.8650E-04  0.8617E-04  0.8650E-04  0.8617E-04  0.8650E-04  0.3934E-04  0.3961E-04  0.3934E-04  0.3961E-04  0.2937E-05  0.2956E-05  0.3934E-04  0.3961E-04  0.2937E-05  0.2956E-05
    -49.193  0.1921E+01  0.1924E+01  0.1641E-03  0.1640E-03  0.1641E-03  0.1640E-03  0.1641E-03  0.1640E-03  0.2827E-03  0.2830E-03  0.2827E-03  0.2830E-03  0.1494E-04  0.1494E-04  0.2827E-03  0.2830E-03  0.1494E-04  0.1494E-04
    -48.911  0.8911E+00  0.8859E+00  0.6172E-04  0.6135E-04  0.6172E-04  0.6135E-04  0.6172E-04  0.6135E-04  0.8755E-04  0.8672E-04  0.8755E-04  0.8672E-04  0.4709E-05  0.4669E-05  0.8755E-04  0.8672E-04  0.4709E-05  0.4669E-05
    -48.629  0.3055E-01  0.3018E-01  0.1301E-05  0.1283E-05  0.1301E-05  0.1283E-05  0.1301E-05  0.1283E-05  0.2329E-06  0.2294E-06  0.2329E-06  0.2294E-06  0.2543E-07  0.2514E-07  0.2329E-06  0.2294E-06  0.2543E-07  0.2514E-07
    -48.347  0.0000E+00  0.0000E+00  0.0000E+00  0.0000E+00  0.0000E+00  0.0000E+00  0.0000E+00  0.0000E+00  0.0000E+00  0.0000E+00  0.0000E+00  0.0000E+00  0.0000E+00  0.0000E+00  0.0000E+00  0.0000E+00  0.0000E+00  0.0000E+00
    -48.065  0.0000E+00  0.0000E+00  0.0000E+00  0.0000E+00  0.0000E+00  0.0000E+00  0.0000E+00  0.0000E+00  0.0000E+00  0.0000E+00  0.0000E+00  0.0000E+00  0.0000E+00  0.0000E+00  0.0000E+00  0.0000E+00  0.0000E+00  0.0000E+00
    -47.783  0.0000E+00  0.0000E+00  0.0000E+00  0.0000E+00  0.0000E+00  0.0000E+00  0.0000E+00  0.0000E+00  0.0000E+00  0.0000E+00  0.0000E+00  0.0000E+00  0.0000E+00  0.0000E+00  0.0000E+00  0.0000E+00  0.0000E+00  0.0000E+00
    -47.500  0.0000E+00  0.0000E+00  0.0000E+00  0.0000E+00  0.0000E+00  0.0000E+00  0.0000E+00  0.0000E+00  0.0000E+00  0.0000E+00  0.0000E+00  0.0000E+00  0.0000E+00  0.0000E+00  0.0000E+00  0.0000E+00  0.0000E+00  0.0000E+00
    -47.218  0.0000E+00  0.0000E+00  0.0000E+00  0.0000E+00  0.0000E+00  0.0000E+00  0.0000E+00  0.0000E+00  0.0000E+00  0.0000E+00  0.0000E+00  0.0000E+00  0.0000E+00  0.0000E+00  0.0000E+00  0.0000E+00  0.0000E+00  0.0000E+00
    -46.936  0.0000E+00  0.0000E+00  0.0000E+00  0.0000E+00  0.0000E+00  0.0000E+00  0.0000E+00  0.0000E+00  0.0000E+00  0.0000E+00  0.0000E+00  0.0000E+00  0.0000E+00  0.0000E+00  0.0000E+00  0.0000E+00  0.0000E+00  0.0000E+00
    -46.654  0.0000E+00  0.0000E+00  0.0000E+00  0.0000E+00  0.0000E+00  0.0000E+00  0.0000E+00  0.0000E+00  0.0000E+00  0.0000E+00  0.0000E+00  0.0000E+00  0.0000E+00  0.0000E+00  0.0000E+00  0.0000E+00  0.0000E+00  0.0000E+00
    -46.372  0.0000E+00  0.0000E+00  0.0000E+00  0.0000E+00  0.0000E+00  0.0000E+00  0.0000E+00  0.0000E+00  0.0000E+00  0.0000E+00  0.0000E+00  0.0000E+00  0.0000E+00  0.0000E+00  0.0000E+00  0.0000E+00  0.0000E+00  0.0000E+00
    -46.089  0.0000E+00  0.0000E+00  0.0000E+00  0.0000E+00  0.0000E+00  0.0000E+00  0.0000E+00  0.0000E+00  0.0000E+00  0.0000E+00  0.0000E+00  0.0000E+00  0.0000E+00  0.0000E+00  0.0000E+00  0.0000E+00  0.0000E+00  0.0000E+00
    -45.807  0.0000E+00  0.0000E+00  0.0000E+00  0.0000E+00  0.0000E+00  0.0000E+00  0.0000E+00  0.0000E+00  0.0000E+00  0.0000E+00  0.0000E+00  0.0000E+00  0.0000E+00  0.0000E+00  0.0000E+00  0.0000E+00  0.0000E+00  0.0000E+00
    -45.525  0.0000E+00  0.0000E+00  0.0000E+00  0.0000E+00  0.0000E+00  0.0000E+00  0.0000E+00  0.0000E+00  0.0000E+00  0.0000E+00  0.0000E+00  0.0000E+00  0.0000E+00  0.0000E+00  0.0000E+00  0.0000E+00  0.0000E+00  0.0000E+00
    -45.243  0.0000E+00  0.0000E+00  0.0000E+00  0.0000E+00  0.0000E+00  0.0000E+00  0.0000E+00  0.0000E+00  0.0000E+00  0.0000E+00  0.0000E+00  0.0000E+00  0.0000E+00  0.0000E+00  0.0000E+00  0.0000E+00  0.0000E+00  0.0000E+00
    -44.961  0.0000E+00  0.0000E+00  0.0000E+00  0.0000E+00  0.0000E+00  0.0000E+00  0.0000E+00  0.0000E+00  0.0000E+00  0.0000E+00  0.0000E+00  0.0000E+00  0.0000E+00  0.0000E+00  0.0000E+00  0.0000E+00  0.0000E+00  0.0000E+00
    -44.678  0.0000E+00  0.0000E+00  0.0000E+00  0.0000E+00  0.0000E+00  0.0000E+00  0.0000E+00  0.0000E+00  0.0000E+00  0.0000E+00  0.0000E+00  0.0000E+00  0.0000E+00  0.0000E+00  0.0000E+00  0.0000E+00  0.0000E+00  0.0000E+00
    -44.396  0.0000E+00  0.0000E+00  0.0000E+00  0.0000E+00  0.0000E+00  0.0000E+00  0.0000E+00  0.0000E+00  0.0000E+00  0.0000E+00  0.0000E+00  0.0000E+00  0.0000E+00  0.0000E+00  0.0000E+00  0.0000E+00  0.0000E+00  0.0000E+00
    -44.114  0.0000E+00  0.0000E+00  0.0000E+00  0.0000E+00  0.0000E+00  0.0000E+00  0.0000E+00  0.0000E+00  0.0000E+00  0.0000E+00  0.0000E+00  0.0000E+00  0.0000E+00  0.0000E+00  0.0000E+00  0.0000E+00  0.0000E+00  0.0000E+00
    -43.832  0.0000E+00  0.0000E+00  0.0000E+00  0.0000E+00  0.0000E+00  0.0000E+00  0.0000E+00  0.0000E+00  0.0000E+00  0.0000E+00  0.0000E+00  0.0000E+00  0.0000E+00  0.0000E+00  0.0000E+00  0.0000E+00  0.0000E+00  0.0000E+00
    -43.550  0.0000E+00  0.0000E+00  0.0000E+00  0.0000E+00  0.0000E+00  0.0000E+00  0.0000E+00  0.0000E+00  0.0000E+00  0.0000E+00  0.0000E+00  0.0000E+00  0.0000E+00  0.0000E+00  0.0000E+00  0.0000E+00  0.0000E+00  0.0000E+00
    -43.268  0.0000E+00  0.0000E+00  0.0000E+00  0.0000E+00  0.0000E+00  0.0000E+00  0.0000E+00  0.0000E+00  0.0000E+00  0.0000E+00  0.0000E+00  0.0000E+00  0.0000E+00  0.0000E+00  0.0000E+00  0.0000E+00  0.0000E+00  0.0000E+00
    -42.985  0.0000E+00  0.0000E+00  0.0000E+00  0.0000E+00  0.0000E+00  0.0000E+00  0.0000E+00  0.0000E+00  0.0000E+00  0.0000E+00  0.0000E+00  0.0000E+00  0.0000E+00  0.0000E+00  0.0000E+00  0.0000E+00  0.0000E+00  0.0000E+00
    -42.703  0.0000E+00  0.0000E+00  0.0000E+00  0.0000E+00  0.0000E+00  0.0000E+00  0.0000E+00  0.0000E+00  0.0000E+00  0.0000E+00  0.0000E+00  0.0000E+00  0.0000E+00  0.0000E+00  0.0000E+00  0.0000E+00  0.0000E+00  0.0000E+00
    -42.421  0.0000E+00  0.0000E+00  0.0000E+00  0.0000E+00  0.0000E+00  0.0000E+00  0.0000E+00  0.0000E+00  0.0000E+00  0.0000E+00  0.0000E+00  0.0000E+00  0.0000E+00  0.0000E+00  0.0000E+00  0.0000E+00  0.0000E+00  0.0000E+00
    -42.139  0.0000E+00  0.0000E+00  0.0000E+00  0.0000E+00  0.0000E+00  0.0000E+00  0.0000E+00  0.0000E+00  0.0000E+00  0.0000E+00  0.0000E+00  0.0000E+00  0.0000E+00  0.0000E+00  0.0000E+00  0.0000E+00  0.0000E+00  0.0000E+00
    -41.857  0.0000E+00  0.0000E+00  0.0000E+00  0.0000E+00  0.0000E+00  0.0000E+00  0.0000E+00  0.0000E+00  0.0000E+00  0.0000E+00  0.0000E+00  0.0000E+00  0.0000E+00  0.0000E+00  0.0000E+00  0.0000E+00  0.0000E+00  0.0000E+00
    -41.574  0.0000E+00  0.0000E+00  0.0000E+00  0.0000E+00  0.0000E+00  0.0000E+00  0.0000E+00  0.0000E+00  0.0000E+00  0.0000E+00  0.0000E+00  0.0000E+00  0.0000E+00  0.0000E+00  0.0000E+00  0.0000E+00  0.0000E+00  0.0000E+00
    -41.292  0.0000E+00  0.0000E+00  0.0000E+00  0.0000E+00  0.0000E+00  0.0000E+00  0.0000E+00  0.0000E+00  0.0000E+00  0.0000E+00  0.0000E+00  0.0000E+00  0.0000E+00  0.0000E+00  0.0000E+00  0.0000E+00  0.0000E+00  0.0000E+00
    -41.010  0.0000E+00  0.0000E+00  0.0000E+00  0.0000E+00  0.0000E+00  0.0000E+00  0.0000E+00  0.0000E+00  0.0000E+00  0.0000E+00  0.0000E+00  0.0000E+00  0.0000E+00  0.0000E+00  0.0000E+00  0.0000E+00  0.0000E+00  0.0000E+00
    -40.728  0.0000E+00  0.0000E+00  0.0000E+00  0.0000E+00  0.0000E+00  0.0000E+00  0.0000E+00  0.0000E+00  0.0000E+00  0.0000E+00  0.0000E+00  0.0000E+00  0.0000E+00  0.0000E+00  0.0000E+00  0.0000E+00  0.0000E+00  0.0000E+00
    -40.446  0.0000E+00  0.0000E+00  0.0000E+00  0.0000E+00  0.0000E+00  0.0000E+00  0.0000E+00  0.0000E+00  0.0000E+00  0.0000E+00  0.0000E+00  0.0000E+00  0.0000E+00  0.0000E+00  0.0000E+00  0.0000E+00  0.0000E+00  0.0000E+00
    -40.163  0.0000E+00  0.0000E+00  0.0000E+00  0.0000E+00  0.0000E+00  0.0000E+00  0.0000E+00  0.0000E+00  0.0000E+00  0.0000E+00  0.0000E+00  0.0000E+00  0.0000E+00  0.0000E+00  0.0000E+00  0.0000E+00  0.0000E+00  0.0000E+00
    -39.881  0.0000E+00  0.0000E+00  0.0000E+00  0.0000E+00  0.0000E+00  0.0000E+00  0.0000E+00  0.0000E+00  0.0000E+00  0.0000E+00  0.0000E+00  0.0000E+00  0.0000E+00  0.0000E+00  0.0000E+00  0.0000E+00  0.0000E+00  0.0000E+00
    -39.599  0.0000E+00  0.0000E+00  0.0000E+00  0.0000E+00  0.0000E+00  0.0000E+00  0.0000E+00  0.0000E+00  0.0000E+00  0.0000E+00  0.0000E+00  0.0000E+00  0.0000E+00  0.0000E+00  0.0000E+00  0.0000E+00  0.0000E+00  0.0000E+00