   2   2   1   0
  0.1471386E+02  0.3087348E-09  0.3087348E-09  0.3087348E-09  0.5000000E-15
  1.000000000000000E-004
  CAR 
 unknown system                          
     21.72946918    -58.86125696  301      8.64965459      1.00000000
    -58.861  0.0000E+00  0.0000E+00  0.0000E+00  0.0000E+00
    -58.593  0.0000E+00  0.0000E+00  0.0000E+00  0.0000E+00
    -58.324  0.0000E+00  0.0000E+00  0.0000E+00  0.0000E+00
    -58.055  0.0000E+00  0.0000E+00  0.0000E+00  0.0000E+00
    -57.787  0.0000E+00  0.0000E+00  0.0000E+00  0.0000E+00
    -57.518  0.0000E+00  0.0000E+00  0.0000E+00  0.0000E+00
    -57.249  0.0000E+00  0.0000E+00  0.0000E+00  0.0000E+00
    -56.981  0.0000E+00  0.0000E+00  0.0000E+00  0.0000E+00
    -56.712  0.0000E+00  0.0000E+00  0.0000E+00  0.0000E+00
    -56.444  0.0000E+00  0.0000E+00  0.0000E+00  0.0000E+00
    -56.175  0.0000E+00  0.0000E+00  0.0000E+00  0.0000E+00
    -55.906  0.0000E+00  0.0000E+00  0.0000E+00  0.0000E+00
    -55.638  0.1192E-03  0.8874E-04  0.3203E-04  0.2384E-04
    -55.369  0.2536E-01  0.1896E-01  0.6845E-02  0.5116E-02
    -55.100  0.2558E+01  0.2154E+01  0.6941E+00  0.5839E+00
    -54.832  0.4767E+01  0.5146E+01  0.1975E+01  0.1966E+01
    -54.563  0.1154E-03  0.7234E-02  0.2000E+01  0.2000E+01
    -54.294  0.0000E+00  0.0000E+00  0.2000E+01  0.2000E+01
    -54.026  0.0000E+00  0.0000E+00  0.2000E+01  0.2000E+01
    -53.757  0.0000E+00  0.0000E+00  0.2000E+01  0.2000E+01
    -53.489  0.0000E+00  0.0000E+00  0.2000E+01  0.2000E+01
    -53.220  0.0000E+00  0.0000E+00  0.2000E+01  0.2000E+01
    -52.951  0.0000E+00  0.0000E+00  0.2000E+01  0.2000E+01
    -52.683  0.0000E+00  0.0000E+00  0.2000E+01  0.2000E+01
    -52.414  0.0000E+00  0.0000E+00  0.2000E+01  0.2000E+01
    -52.145  0.0000E+00  0.0000E+00  0.2000E+01  0.2000E+01
    -51.877  0.0000E+00  0.0000E+00  0.2000E+01  0.2000E+01
    -51.608  0.0000E+00  0.0000E+00  0.2000E+01  0.2000E+01
    -51.339  0.0000E+00  0.0000E+00  0.2000E+01  0.2000E+01
    -51.071  0.0000E+00  0.0000E+00  0.2000E+01  0.2000E+01
    -50.802  0.0000E+00  0.0000E+00  0.2000E+01  0.2000E+01
    -50.534  0.0000E+00  0.0000E+00  0.2000E+01  0.2000E+01
    -50.265  0.0000E+00  0.0000E+00  0.2000E+01  0.2000E+01
    -49.996  0.0000E+00  0.0000E+00  0.2000E+01  0.2000E+01
    -49.728  0.0000E+00  0.0000E+00  0.2000E+01  0.2000E+01
    -49.459  0.0000E+00  0.0000E+00  0.2000E+01  0.2000E+01
    -49.190  0.0000E+00  0.0000E+00  0.2000E+01  0.2000E+01
    -48.922  0.0000E+00  0.0000E+00  0.2000E+01  0.2000E+01
    -48.653  0.0000E+00  0.0000E+00  0.2000E+01  0.2000E+01
    -48.384  0.0000E+00  0.0000E+00  0.2000E+01  0.2000E+01
    -48.116  0.0000E+00  0.0000E+00  0.2000E+01  0.2000E+01
    -47.847  0.0000E+00  0.0000E+00  0.2000E+01  0.2000E+01
    -47.579  0.0000E+00  0.0000E+00  0.2000E+01  0.2000E+01
    -47.310  0.0000E+00  0.0000E+00  0.2000E+01  0.2000E+01
    -47.041  0.0000E+00  0.0000E+00  0.2000E+01  0.2000E+01
    -46.773  0.0000E+00  0.0000E+00  0.2000E+01  0.2000E+01
    -46.504  0.0000E+00  0.0000E+00  0.2000E+01  0.2000E+01
    -46.235  0.0000E+00  0.0000E+00  0.2000E+01  0.2000E+01
    -45.967  0.0000E+00  0.0000E+00  0.2000E+01  0.2000E+01
    -45.698  0.0000E+00  0.0000E+00  0.2000E+01  0.2000E+01
    -45.429  0.0000E+00  0.0000E+00  0.2000E+01  0.2000E+01
    -45.161  0.0000E+00  0.0000E+00  0.2000E+01  0.2000E+01
    -44.892  0.0000E+00  0.0000E+00  0.2000E+01  0.2000E+01
    -44.624  0.0000E+00  0.0000E+00  0.2000E+01  0.2000E+01
    -44.355  0.0000E+00  0.0000E+00  0.2000E+01  0.2000E+01
    -44.086  0.0000E+00  0.0000E+00  0.2000E+01  0.2000E+01
    -43.818  0.0000E+00  0.0000E+00  0.2000E+01  0.2000E+01
    -43.549  0.0000E+00  0.0000E+00  0.2000E+01  0.2000E+01
    -43.280  0.0000E+00  0.0000E+00  0.2000E+01  0.2000E+01
    -43.012  0.0000E+00  0.0000E+00  0.2000E+01  0.2000E+01
    -42.743  0.0000E+00  0.0000E+00  0.2000E+01  0.2000E+01
    -42.474  0.0000E+00  0.0000E+00  0.2000E+01  0.2000E+01
    -42.206  0.0000E+00  0.0000E+00  0.2000E+01  0.2000E+01
    -41.937  0.0000E+00  0.0000E+00  0.2000E+01  0.2000E+01
    -41.669  0.0000E+00  0.0000E+00  0.2000E+01  0.2000E+01
    -41.400  0.0000E+00  0.0000E+00  0.2000E+01  0.2000E+01
    -41.131  0.0000E+00  0.0000E+00  0.2000E+01  0.2000E+01
    -40.863  0.0000E+00  0.0000E+00  0.2000E+01  0.2000E+01
    -40.594  0.0000E+00  0.0000E+00  0.2000E+01  0.2000E+01
    -40.325  0.0000E+00  0.0000E+00  0.2000E+01  0.2000E+01
    -40.057  0.0000E+00  0.0000E+00  0.2000E+01  0.2000E+01
    -39.788  0.0000E+00  0.0000E+00  0.2000E+01  0.2000E+01
    -39.519  0.0000E+00  0.0000E+00  0.2000E+01  0.2000E+01
    -39.251  0.0000E+00  0.0000E+00  0.2000E+01  0.2000E+01
    -38.982  0.0000E+00  0.0000E+00  0.2000E+01  0.2000E+01
    -38.714  0.0000E+00  0.0000E+00  0.2000E+01  0.2000E+01
    -38.445  0.0000E+00  0.0000E+00  0.2000E+01  0.2000E+01
    -38.176  0.0000E+00  0.0000E+00  0.2000E+01  0.2000E+01
    -37.908  0.0000E+00  0.0000E+00  0.2000E+01  0.2000E+01
    -37.639  0.0000E+00  0.0000E+00  0.2000E+01  0.2000E+01
    -37.370  0.0000E+00  0.0000E+00  0.2000E+01  0.2000E+01
    -37.102  0.0000E+00  0.0000E+00  0.2000E+01  0.2000E+01
    -36.833  0.0000E+00  0.0000E+00  0.2000E+01  0.2000E+01
    -36.564  0.0000E+00  0.0000E+00  0.2000E+01  0.2000E+01
    -36.296  0.0000E+00  0.0000E+00  0.2000E+01  0.2000E+01
    -36.027  0.0000E+00  0.0000E+00  0.2000E+01  0.2000E+01
    -35.759  0.0000E+00  0.0000E+00  0.2000E+01  0.2000E+01
    -35.490  0.0000E+00  0.0000E+00  0.2000E+01  0.2000E+01
    -35.221  0.0000E+00  0.0000E+00  0.2000E+01  0.2000E+01
    -34.953  0.0000E+00  0.0000E+00  0.2000E+01  0.2000E+01
    -34.684  0.0000E+00  0.0000E+00  0.2000E+01  0.2000E+01
    -34.415  0.0000E+00  0.0000E+00  0.2000E+01  0.2000E+01
    -34.147  0.0000E+00  0.0000E+00  0.2000E+01  0.2000E+01
    -33.878  0.0000E+00  0.0000E+00  0.2000E+01  0.2000E+01
    -33.609  0.0000E+00  0.0000E+00  0.2000E+01  0.2000E+01
    -33.341  0.0000E+00  0.0000E+00  0.2000E+01  0.2000E+01
    -33.072  0.0000E+00  0.0000E+00  0.2000E+01  0.2000E+01
    -32.804  0.0000E+00  0.0000E+00  0.2000E+01  0.2000E+01
    -32.535  0.0000E+00  0.0000E+00  0.2000E+01  0.2000E+01
    -32.266  0.0000E+00  0.0000E+00  0.2000E+01  0.2000E+01
    -31.998  0.0000E+00  0.0000E+00  0.2000E+01  0.2000E+01
    -31.729  0.0000E+00  0.0000E+00  0.2000E+01  0.2000E+01
    -31.460  0.0000E+00  0.0000E+00  0.2000E+01  0.2000E+01
    -31.192  0.0000E+00  0.0000E+00  0.2000E+01  0.2000E+01
    -30.923  0.0000E+00  0.0000E+00  0.2000E+01  0.2000E+01
    -30.655  0.0000E+00  0.0000E+00  0.2000E+01  0.2000E+01
    -30.386  0.0000E+00  0.0000E+00  0.2000E+01  0.2000E+01
    -30.117  0.0000E+00  0.0000E+00  0.2000E+01  0.2000E+01
    -29.849  0.1010E-04  0.6921E-05  0.2000E+01  0.2000E+01
    -29.580  0.2790E-02  0.2085E-02  0.2001E+01  0.2001E+01
    -29.311  0.4936E+00  0.3850E+00  0.2133E+01  0.2104E+01
    -29.043  0.6067E+01  0.5790E+01  0.3763E+01  0.3659E+01
    -28.774  0.8603E+01  0.8455E+01  0.6101E+01  0.5951E+01
    -28.505  0.6739E+01  0.7229E+01  0.7940E+01  0.7920E+01
    -28.237  0.5033E-01  0.1080E+00  0.8000E+01  0.8000E+01
    -27.968  0.0000E+00  0.0000E+00  0.8000E+01  0.8000E+01
    -27.700  0.0000E+00  0.0000E+00  0.8000E+01  0.8000E+01
    -27.431  0.0000E+00  0.0000E+00  0.8000E+01  0.8000E+01
    -27.162  0.0000E+00  0.0000E+00  0.8000E+01  0.8000E+01
    -26.894  0.0000E+00  0.0000E+00  0.8000E+01  0.8000E+01
    -26.625  0.0000E+00  0.0000E+00  0.8000E+01  0.8000E+01
    -26.356  0.0000E+00  0.0000E+00  0.8000E+01  0.8000E+01
    -26.088  0.0000E+00  0.0000E+00  0.8000E+01  0.8000E+01
    -25.819  0.0000E+00  0.0000E+00  0.8000E+01  0.8000E+01
    -25.550  0.0000E+00  0.0000E+00  0.8000E+01  0.8000E+01
    -25.282  0.0000E+00  0.0000E+00  0.8000E+01  0.8000E+01
    -25.013  0.0000E+00  0.0000E+00  0.8000E+01  0.8000E+01
    -24.745  0.0000E+00  0.0000E+00  0.8000E+01  0.8000E+01
    -24.476  0.0000E+00  0.0000E+00  0.8000E+01  0.8000E+01
    -24.207  0.0000E+00  0.0000E+00  0.8000E+01  0.8000E+01
    -23.939  0.0000E+00  0.0000E+00  0.8000E+01  0.8000E+01
    -23.670  0.0000E+00  0.0000E+00  0.8000E+01  0.8000E+01
    -23.401  0.0000E+00  0.0000E+00  0.8000E+01  0.8000E+01
    -23.133  0.0000E+00  0.0000E+00  0.8000E+01  0.8000E+01
    -22.864  0.0000E+00  0.0000E+00  0.8000E+01  0.8000E+01
    -22.595  0.0000E+00  0.0000E+00  0.8000E+01  0.8000E+01
    -22.327  0.0000E+00  0.0000E+00  0.8000E+01  0.8000E+01
    -22.058  0.0000E+00  0.0000E+00  0.8000E+01  0.8000E+01
    -21.790  0.0000E+00  0.0000E+00  0.8000E+01  0.8000E+01
    -21.521  0.0000E+00  0.0000E+00  0.8000E+01  0.8000E+01
    -21.252  0.0000E+00  0.0000E+00  0.8000E+01  0.8000E+01
    -20.984  0.0000E+00  0.0000E+00  0.8000E+01  0.8000E+01
    -20.715  0.0000E+00  0.0000E+00  0.8000E+01  0.8000E+01
    -20.446  0.0000E+00  0.0000E+00  0.8000E+01  0.8000E+01
    -20.178  0.0000E+00  0.0000E+00  0.8000E+01  0.8000E+01
    -19.909  0.0000E+00  0.0000E+00  0.8000E+01  0.8000E+01
    -19.640  0.0000E+00  0.0000E+00  0.8000E+01  0.8000E+01
    -19.372  0.0000E+00  0.0000E+00  0.8000E+01  0.8000E+01
    -19.103  0.0000E+00  0.0000E+00  0.8000E+01  0.8000E+01
    -18.835  0.0000E+00  0.0000E+00  0.8000E+01  0.8000E+01
    -18.566  0.0000E+00  0.0000E+00  0.8000E+01  0.8000E+01
    -18.297  0.0000E+00  0.0000E+00  0.8000E+01  0.8000E+01
    -18.029  0.0000E+00  0.0000E+00  0.8000E+01  0.8000E+01
    -17.760  0.0000E+00  0.0000E+00  0.8000E+01  0.8000E+01
    -17.491  0.0000E+00  0.0000E+00  0.8000E+01  0.8000E+01
    -17.223  0.0000E+00  0.0000E+00  0.8000E+01  0.8000E+01
    -16.954  0.0000E+00  0.0000E+00  0.8000E+01  0.8000E+01
    -16.685  0.0000E+00  0.0000E+00  0.8000E+01  0.8000E+01
    -16.417  0.0000E+00  0.0000E+00  0.8000E+01  0.8000E+01
    -16.148  0.0000E+00  0.0000E+00  0.8000E+01  0.8000E+01
    -15.880  0.0000E+00  0.0000E+00  0.8000E+01  0.8000E+01
    -15.611  0.0000E+00  0.0000E+00  0.8000E+01  0.8000E+01
    -15.342  0.0000E+00  0.0000E+00  0.8000E+01  0.8000E+01
    -15.074  0.0000E+00  0.0000E+00  0.8000E+01  0.8000E+01
    -14.805  0.0000E+00  0.0000E+00  0.8000E+01  0.8000E+01
    -14.536  0.0000E+00  0.0000E+00  0.8000E+01  0.8000E+01
    -14.268  0.0000E+00  0.0000E+00  0.8000E+01  0.8000E+01
    -13.999  0.0000E+00  0.0000E+00  0.8000E+01  0.8000E+01
    -13.730  0.0000E+00  0.0000E+00  0.8000E+01  0.8000E+01
    -13.462  0.0000E+00  0.0000E+00  0.8000E+01  0.8000E+01
    -13.193  0.0000E+00  0.0000E+00  0.8000E+01  0.8000E+01
    -12.925  0.0000E+00  0.0000E+00  0.8000E+01  0.8000E+01
    -12.656  0.0000E+00  0.0000E+00  0.8000E+01  0.8000E+01
    -12.387  0.0000E+00  0.0000E+00  0.8000E+01  0.8000E+01
    -12.119  0.0000E+00  0.0000E+00  0.8000E+01  0.8000E+01
    -11.850  0.0000E+00  0.0000E+00  0.8000E+01  0.8000E+01
    -11.581  0.0000E+00  0.0000E+00  0.8000E+01  0.8000E+01
    -11.313  0.0000E+00  0.0000E+00  0.8000E+01  0.8000E+01
    -11.044  0.0000E+00  0.0000E+00  0.8000E+01  0.8000E+01
    -10.775  0.0000E+00  0.0000E+00  0.8000E+01  0.8000E+01
    -10.507  0.0000E+00  0.0000E+00  0.8000E+01  0.8000E+01
    -10.238  0.0000E+00  0.0000E+00  0.8000E+01  0.8000E+01
     -9.970  0.0000E+00  0.0000E+00  0.8000E+01  0.8000E+01
     -9.701  0.0000E+00  0.0000E+00  0.8000E+01  0.8000E+01
     -9.432  0.0000E+00  0.0000E+00  0.8000E+01  0.8000E+01
     -9.164  0.0000E+00  0.0000E+00  0.8000E+01  0.8000E+01
     -8.895  0.0000E+00  0.0000E+00  0.8000E+01  0.8000E+01
     -8.626  0.0000E+00  0.0000E+00  0.8000E+01  0.8000E+01
     -8.358  0.0000E+00  0.0000E+00  0.8000E+01  0.8000E+01
     -8.089  0.0000E+00  0.0000E+00  0.8000E+01  0.8000E+01
     -7.820  0.0000E+00  0.0000E+00  0.8000E+01  0.8000E+01
     -7.552  0.0000E+00  0.0000E+00  0.8000E+01  0.8000E+01
     -7.283  0.0000E+00  0.0000E+00  0.8000E+01  0.8000E+01
     -7.015  0.0000E+00  0.0000E+00  0.8000E+01  0.8000E+01
     -6.746  0.0000E+00  0.0000E+00  0.8000E+01  0.8000E+01
     -6.477  0.0000E+00  0.0000E+00  0.8000E+01  0.8000E+01
     -6.209  0.0000E+00  0.0000E+00  0.8000E+01  0.8000E+01
     -5.940  0.0000E+00  0.0000E+00  0.8000E+01  0.8000E+01
     -5.671  0.0000E+00  0.0000E+00  0.8000E+01  0.8000E+01
     -5.403  0.0000E+00  0.0000E+00  0.8000E+01  0.8000E+01
     -5.134  0.0000E+00  0.0000E+00  0.8000E+01  0.8000E+01
     -4.865  0.0000E+00  0.0000E+00  0.8000E+01  0.8000E+01
     -4.597  0.0000E+00  0.0000E+00  0.8000E+01  0.8000E+01
     -4.328  0.0000E+00  0.0000E+00  0.8000E+01  0.8000E+01
     -4.060  0.0000E+00  0.0000E+00  0.8000E+01  0.8000E+01
     -3.791  0.0000E+00  0.0000E+00  0.8000E+01  0.8000E+01
     -3.522  0.0000E+00  0.0000E+00  0.8000E+01  0.8000E+01
     -3.254  0.0000E+00  0.0000E+00  0.8000E+01  0.8000E+01
     -2.985  0.0000E+00  0.0000E+00  0.8000E+01  0.8000E+01
     -2.716  0.0000E+00  0.0000E+00  0.8000E+01  0.8000E+01
     -2.448  0.0000E+00  0.0000E+00  0.8000E+01  0.8000E+01
     -2.179  0.0000E+00  0.0000E+00  0.8000E+01  0.8000E+01
     -1.910  0.0000E+00  0.0000E+00  0.8000E+01  0.8000E+01
     -1.642  0.0000E+00  0.0000E+00  0.8000E+01  0.8000E+01
     -1.373  0.0000E+00  0.0000E+00  0.8000E+01  0.8000E+01
     -1.105  0.0000E+00  0.0000E+00  0.8000E+01  0.8000E+01
     -0.836  0.0000E+00  0.0000E+00  0.8000E+01  0.8000E+01
     -0.567  0.0000E+00  0.0000E+00  0.8000E+01  0.8000E+01
     -0.299  0.0000E+00  0.0000E+00  0.8000E+01  0.8000E+01
     -0.030  0.0000E+00  0.0000E+00  0.8000E+01  0.8000E+01
      0.239  0.0000E+00  0.0000E+00  0.8000E+01  0.8000E+01
      0.507  0.0000E+00  0.0000E+00  0.8000E+01  0.8000E+01
      0.776  0.0000E+00  0.0000E+00  0.8000E+01  0.8000E+01
      1.045  0.0000E+00  0.0000E+00  0.8000E+01  0.8000E+01
      1.313  0.0000E+00  0.0000E+00  0.8000E+01  0.8000E+01
      1.582  0.0000E+00  0.0000E+00  0.8000E+01  0.8000E+01
      1.850  0.7847E-06  0.6252E-06  0.8000E+01  0.8000E+01
      2.119  0.1642E-03  0.1316E-03  0.8000E+01  0.8000E+01
      2.388  0.9999E-02  0.8904E-02  0.8003E+01  0.8002E+01
      2.656  0.3723E-01  0.3674E-01  0.8013E+01  0.8012E+01
      2.925  0.6914E-01  0.6737E-01  0.8031E+01  0.8031E+01
      3.194  0.6041E-01  0.5947E-01  0.8048E+01  0.8047E+01
      3.462  0.1050E+00  0.1054E+00  0.8076E+01  0.8075E+01
      3.731  0.1106E+00  0.1086E+00  0.8106E+01  0.8105E+01
      4.000  0.1043E+00  0.1016E+00  0.8134E+01  0.8132E+01
      4.268  0.1680E+00  0.1687E+00  0.8180E+01  0.8178E+01
      4.537  0.1350E+00  0.1384E+00  0.8217E+01  0.8215E+01
      4.805  0.2040E+00  0.2015E+00  0.8272E+01  0.8270E+01
      5.074  0.2540E+00  0.2526E+00  0.8341E+01  0.8338E+01
      5.343  0.2372E+00  0.2346E+00  0.8405E+01  0.8402E+01
      5.611  0.3863E+00  0.3789E+00  0.8509E+01  0.8504E+01
      5.880  0.7105E+00  0.6919E+00  0.8701E+01  0.8691E+01
      6.149  0.8238E+00  0.8118E+00  0.8924E+01  0.8910E+01
      6.417  0.1122E+01  0.1119E+01  0.9227E+01  0.9213E+01
      6.686  0.1518E+01  0.1508E+01  0.9638E+01  0.9622E+01
      6.955  0.1132E+01  0.1139E+01  0.9948E+01  0.9933E+01
      7.223  0.7810E+00  0.8107E+00  0.1016E+02  0.1016E+02
      7.492  0.9023E+00  0.8594E+00  0.1041E+02  0.1039E+02
      7.760  0.2232E+01  0.2167E+01  0.1101E+02  0.1097E+02
      8.029  0.2278E+01  0.2307E+01  0.1163E+02  0.1160E+02
      8.298  0.2131E+01  0.2127E+01  0.1221E+02  0.1218E+02
      8.566  0.2315E+01  0.2307E+01  0.1284E+02  0.1281E+02
      8.835  0.1841E+01  0.1871E+01  0.1335E+02  0.1332E+02
      9.104  0.1030E+01  0.1079E+01  0.1363E+02  0.1362E+02
      9.372  0.6413E+00  0.6623E+00  0.1381E+02  0.1380E+02
      9.641  0.5042E+00  0.4832E+00  0.1395E+02  0.1393E+02
      9.909  0.7197E+00  0.7082E+00  0.1414E+02  0.1413E+02
     10.178  0.1232E+01  0.1195E+01  0.1447E+02  0.1445E+02
     10.447  0.1794E+01  0.1767E+01  0.1496E+02  0.1493E+02
     10.715  0.2379E+01  0.2354E+01  0.1560E+02  0.1557E+02
     10.984  0.2860E+01  0.2849E+01  0.1638E+02  0.1634E+02
     11.253  0.3663E+01  0.3641E+01  0.1737E+02  0.1733E+02
     11.521  0.1982E+01  0.2050E+01  0.1792E+02  0.1790E+02
     11.790  0.1409E+01  0.1419E+01  0.1830E+02  0.1829E+02
     12.059  0.1011E+01  0.1037E+01  0.1858E+02  0.1857E+02
     12.327  0.7290E+00  0.7506E+00  0.1878E+02  0.1878E+02
     12.596  0.3232E+00  0.3267E+00  0.1887E+02  0.1887E+02
     12.864  0.4833E+00  0.4930E+00  0.1900E+02  0.1900E+02
     13.133  0.2954E+00  0.3001E+00  0.1909E+02  0.1908E+02
     13.402  0.4379E+00  0.4359E+00  0.1921E+02  0.1920E+02
     13.670  0.3475E+00  0.3602E+00  0.1930E+02  0.1930E+02
     13.939  0.2031E+00  0.1932E+00  0.1936E+02  0.1935E+02
     14.208  0.3770E+00  0.3779E+00  0.1946E+02  0.1946E+02
     14.476  0.3297E+00  0.3352E+00  0.1955E+02  0.1955E+02
     14.745  0.2404E+00  0.2445E+00  0.1962E+02  0.1961E+02
     15.014  0.1796E+00  0.1743E+00  0.1967E+02  0.1966E+02
     15.282  0.2721E+00  0.2693E+00  0.1974E+02  0.1973E+02
     15.551  0.1942E+00  0.2037E+00  0.1979E+02  0.1979E+02
     15.819  0.1892E+00  0.1831E+00  0.1984E+02  0.1984E+02
     16.088  0.1534E+00  0.1573E+00  0.1988E+02  0.1988E+02
     16.357  0.1063E+00  0.1086E+00  0.1991E+02  0.1991E+02
     16.625  0.8945E-01  0.8774E-01  0.1994E+02  0.1994E+02
     16.894  0.9803E-01  0.9720E-01  0.1996E+02  0.1996E+02
     17.163  0.5196E-01  0.5864E-01  0.1998E+02  0.1998E+02
     17.431  0.5755E-02  0.5747E-02  0.1998E+02  0.1998E+02
     17.700  0.4536E-01  0.4386E-01  0.1999E+02  0.1999E+02
     17.969  0.1897E-01  0.1995E-01  0.2000E+02  0.2000E+02
     18.237  0.4603E-02  0.5448E-02  0.2000E+02  0.2000E+02
     18.506  0.0000E+00  0.0000E+00  0.2000E+02  0.2000E+02
     18.774  0.0000E+00  0.0000E+00  0.2000E+02  0.2000E+02
     19.043  0.0000E+00  0.0000E+00  0.2000E+02  0.2000E+02
     19.312  0.0000E+00  0.0000E+00  0.2000E+02  0.2000E+02
     19.580  0.0000E+00  0.0000E+00  0.2000E+02  0.2000E+02
     19.849  0.0000E+00  0.0000E+00  0.2000E+02  0.2000E+02
     20.118  0.0000E+00  0.0000E+00  0.2000E+02  0.2000E+02
     20.386  0.0000E+00  0.0000E+00  0.2000E+02  0.2000E+02
     20.655  0.0000E+00  0.0000E+00  0.2000E+02  0.2000E+02
     20.924  0.0000E+00  0.0000E+00  0.2000E+02  0.2000E+02
     21.192  0.0000E+00  0.0000E+00  0.2000E+02  0.2000E+02
     21.461  0.0000E+00  0.0000E+00  0.2000E+02  0.2000E+02
     21.729  0.0000E+00  0.0000E+00  0.2000E+02  0.2000E+02
     21.72946918    -58.86125696  301      8.64965459      1.00000000
    -58.861  0.0000E+00  0.0000E+00  0.0000E+00  0.0000E+00  0.0000E+00  0.0000E+00  0.0000E+00  0.0000E+00  0.0000E+00  0.0000E+00  0.0000E+00  0.0000E+00  0.0000E+00  0.0000E+00  0.0000E+00  0.0000E+00  0.0000E+00  0.0000E+00
    -58.593  0.0000E+00  0.0000E+00  0.0000E+00  0.0000E+00  0.0000E+00  0.0000E+00  0.0000E+00  0.0000E+00  0.0000E+00  0.0000E+00  0.0000E+00  0.0000E+00  0.0000E+00  0.0000E+00  0.0000E+00  0.0000E+00  0.0000E+00  0.0000E+00
    -58.324  0.0000E+00  0.0000E+00  0.0000E+00  0.0000E+00  0.0000E+00  0.0000E+00  0.0000E+00  0.0000E+00  0.0000E+00  0.0000E+00  0.0000E+00  0.0000E+00  0.0000E+00  0.0000E+00  0.0000E+00  0.0000E+00  0.0000E+00  0.0000E+00
    -58.055  0.0000E+00  0.0000E+00  0.0000E+00  0.0000E+00  0.0000E+00  0.0000E+00  0.0000E+00  0.0000E+00  0.0000E+00  0.0000E+00  0.0000E+00  0.0000E+00  0.0000E+00  0.0000E+00  0.0000E+00  0.0000E+00  0.0000E+00  0.0000E+00
    -57.787  0.0000E+00  0.0000E+00  0.0000E+00  0.0000E+00  0.0000E+00  0.0000E+00  0.0000E+00  0.0000E+00  0.0000E+00  0.0000E+00  0.0000E+00  0.0000E+00  0.0000E+00  0.0000E+00  0.0000E+00  0.0000E+00  0.0000E+00  0.0000E+00
    -57.518  0.0000E+00  0.0000E+00  0.0000E+00  0.0000E+00  0.0000E+00  0.0000E+00  0.0000E+00  0.0000E+00  0.0000E+00  0.0000E+00  0.0000E+00  0.0000E+00  0.0000E+00  0.0000E+00  0.0000E+00  0.0000E+00  0.0000E+00  0.0000E+00
    -57.249  0.0000E+00  0.0000E+00  0.0000E+00  0.0000E+00  0.0000E+00  0.0000E+00  0.0000E+00  0.0000E+00  0.0000E+00  0.0000E+00  0.0000E+00  0.0000E+00  0.0000E+00  0.0000E+00  0.0000E+00  0.0000E+00  0.0000E+00  0.0000E+00
    -56.981  0.0000E+00  0.0000E+00  0.0000E+00  0.0000E+00  0.0000E+00  0.0000E+00  0.0000E+00  0.0000E+00  0.0000E+00  0.0000E+00  0.0000E+00  0.0000E+00  0.0000E+00  0.0000E+00  0.0000E+00  0.0000E+00  0.0000E+00  0.0000E+00
    -56.712  0.0000E+00  0.0000E+00  0.0000E+00  0.0000E+00  0.0000E+00  0.0000E+00  0.0000E+00  0.0000E+00  0.0000E+00  0.0000E+00  0.0000E+00  0.0000E+00  0.0000E+00  0.0000E+00  0.0000E+00  0.0000E+00  0.0000E+00  0.0000E+00
    -56.444  0.0000E+00  0.0000E+00  0.0000E+00  0.0000E+00  0.0000E+00  0.0000E+00  0.0000E+00  0.0000E+00  0.0000E+00  0.0000E+00  0.0000E+00  0.0000E+00  0.0000E+00  0.0000E+00  0.0000E+00  0.0000E+00  0.0000E+00  0.0000E+00
    -56.175  0.0000E+00  0.0000E+00  0.0000E+00  0.0000E+00  0.0000E+00  0.0000E+00  0.0000E+00  0.0000E+00  0.0000E+00  0.0000E+00  0.0000E+00  0.0000E+00  0.0000E+00  0.0000E+00  0.0000E+00  0.0000E+00  0.0000E+00  0.0000E+00
    -55.906  0.0000E+00  0.0000E+00  0.0000E+00  0.0000E+00  0.0000E+00  0.0000E+00  0.0000E+00  0.0000E+00  0.0000E+00  0.0000E+00  0.0000E+00  0.0000E+00  0.0000E+00  0.0000E+00  0.0000E+00  0.0000E+00  0.0000E+00  0.0000E+00
    -55.638  0.5933E-04  0.4417E-04  0.3907E-09  0.2912E-09  0.3907E-09  0.2912E-09  0.3907E-09  0.2912E-09  0.3064E-09  0.2282E-09  0.3064E-09  0.2282E-09  0.1132E-10  0.8434E-11  0.3064E-09  0.2282E-09  0.1132E-10  0.8434E-11
    -55.369  0.1262E-01  0.9434E-02  0.8311E-07  0.6213E-07  0.8311E-07  0.6213E-07  0.8311E-07  0.6213E-07  0.6545E-07  0.4881E-07  0.6545E-07  0.4881E-07  0.2417E-08  0.1803E-08  0.6545E-07  0.4881E-07  0.2417E-08  0.1803E-08
    -55.100  0.1274E+01  0.1073E+01  0.7879E-05  0.6730E-05  0.7879E-05  0.6730E-05  0.7879E-05  0.6730E-05  0.8453E-05  0.6954E-05  0.8453E-05  0.6954E-05  0.2948E-06  0.2442E-06  0.8453E-05  0.6954E-05  0.2948E-06  0.2442E-06
    -54.832  0.2376E+01  0.2564E+01  0.1190E-04  0.1299E-04  0.1190E-04  0.1299E-04  0.1190E-04  0.1299E-04  0.1731E-04  0.1868E-04  0.1731E-04  0.1868E-04  0.5670E-06  0.6136E-06  0.1731E-04  0.1868E-04  0.5670E-06  0.6136E-06
    -54.563  0.5760E-04  0.3611E-02  0.1574E-16  0.6491E-08  0.1574E-16  0.6491E-08  0.1574E-16  0.6491E-08  0.9279E-16  0.4750E-09  0.9279E-16  0.4750E-09  0.3548E-13  0.4802E-10  0.9279E-16  0.4750E-09  0.3548E-13  0.4802E-10
    -54.294  0.0000E+00  0.0000E+00  0.0000E+00  0.0000E+00  0.0000E+00  0.0000E+00  0.0000E+00  0.0000E+00  0.0000E+00  0.0000E+00  0.0000E+00  0.0000E+00  0.0000E+00  0.0000E+00  0.0000E+00  0.0000E+00  0.0000E+00  0.0000E+00
    -54.026  0.0000E+00  0.0000E+00  0.0000E+00  0.0000E+00  0.0000E+00  0.0000E+00  0.0000E+00  0.0000E+00  0.0000E+00  0.0000E+00  0.0000E+00  0.0000E+00  0.0000E+00  0.0000E+00  0.0000E+00  0.0000E+00  0.0000E+00  0.0000E+00
    -53.757  0.0000E+00  0.0000E+00  0.0000E+00  0.0000E+00  0.0000E+00  0.0000E+00  0.0000E+00  0.0000E+00  0.0000E+00  0.0000E+00  0.0000E+00  0.0000E+00  0.0000E+00  0.0000E+00  0.0000E+00  0.0000E+00  0.0000E+00  0.0000E+00
    -53.489  0.0000E+00  0.0000E+00  0.0000E+00  0.0000E+00  0.0000E+00  0.0000E+00  0.0000E+00  0.0000E+00  0.0000E+00  0.0000E+00  0.0000E+00  0.0000E+00  0.0000E+00  0.0000E+00  0.0000E+00  0.0000E+00  0.0000E+00  0.0000E+00
    -53.220  0.0000E+00  0.0000E+00  0.0000E+00  0.0000E+00  0.0000E+00  0.0000E+00  0.0000E+00  0.0000E+00  0.0000E+00  0.0000E+00  0.0000E+00  0.0000E+00  0.0000E+00  0.0000E+00  0.0000E+00  0.0000E+00  0.0000E+00  0.0000E+00
    -52.951  0.0000E+00  0.0000E+00  0.0000E+00  0.0000E+00  0.0000E+00  0.0000E+00  0.0000E+00  0.0000E+00  0.0000E+00  0.0000E+00  0.0000E+00  0.0000E+00  0.0000E+00  0.0000E+00  0.0000E+00  0.0000E+00  0.0000E+00  0.0000E+00
    -52.683  0.0000E+00  0.0000E+00  0.0000E+00  0.0000E+00  0.0000E+00  0.0000E+00  0.0000E+00  0.0000E+00  0.0000E+00  0.0000E+00  0.0000E+00  0.0000E+00  0.0000E+00  0.0000E+00  0.0000E+00  0.0000E+00  0.0000E+00  0.0000E+00
    -52.414  0.0000E+00  0.0000E+00  0.0000E+00  0.0000E+00  0.0000E+00  0.0000E+00  0.0000E+00  0.0000E+00  0.0000E+00  0.0000E+00  0.0000E+00  0.0000E+00  0.0000E+00  0.0000E+00  0.0000E+00  0.0000E+00  0.0000E+00  0.0000E+00
    -52.145  0.0000E+00  0.0000E+00  0.0000E+00  0.0000E+00  0.0000E+00  0.0000E+00  0.0000E+00  0.0000E+00  0.0000E+00  0.0000E+00  0.0000E+00  0.0000E+00  0.0000E+00  0.0000E+00  0.0000E+00  0.0000E+00  0.0000E+00  0.0000E+00
    -51.877  0.0000E+00  0.0000E+00  0.0000E+00  0.0000E+00  0.0000E+00  0.0000E+00  0.0000E+00  0.0000E+00  0.0000E+00  0.0000E+00  0.0000E+00  0.0000E+00  0.0000E+00  0.0000E+00  0.0000E+00  0.0000E+00  0.0000E+00  0.0000E+00
    -51.608  0.0000E+00  0.0000E+00  0.0000E+00  0.0000E+00  0.0000E+00  0.0000E+00  0.0000E+00  0.0000E+00  0.0000E+00  0.0000E+00  0.0000E+00  0.0000E+00  0.0000E+00  0.0000E+00  0.0000E+00  0.0000E+00  0.0000E+00  0.0000E+00
    -51.339  0.0000E+00  0.0000E+00  0.0000E+00  0.0000E+00  0.0000E+00  0.0000E+00  0.0000E+00  0.0000E+00  0.0000E+00  0.0000E+00  0.0000E+00  0.0000E+00  0.0000E+00  0.0000E+00  0.0000E+00  0.0000E+00  0.0000E+00  0.0000E+00
    -51.071  0.0000E+00  0.0000E+00  0.0000E+00  0.0000E+00  0.0000E+00  0.0000E+00  0.0000E+00  0.0000E+00  0.0000E+00  0.0000E+00  0.0000E+00  0.0000E+00  0.0000E+00  0.0000E+00  0.0000E+00  0.0000E+00  0.0000E+00  0.0000E+00
    -50.802  0.0000E+00  0.0000E+00  0.0000E+00  0.0000E+00  0.0000E+00  0.0000E+00  0.0000E+00  0.0000E+00  0.0000E+00  0.0000E+00  0.0000E+00  0.0000E+00  0.0000E+00  0.0000E+00  0.0000E+00  0.0000E+00  0.0000E+00  0.0000E+00
    -50.534  0.0000E+00  0.0000E+00  0.0000E+00  0.0000E+00  0.0000E+00  0.0000E+00  0.0000E+00  0.0000E+00  0.0000E+00  0.0000E+00  0.0000E+00  0.0000E+00  0.0000E+00  0.0000E+00  0.0000E+00  0.0000E+00  0.0000E+00  0.0000E+00
    -50.265  0.0000E+00  0.0000E+00  0.0000E+00  0.0000E+00  0.0000E+00  0.0000E+00  0.0000E+00  0.0000E+00  0.0000E+00  0.0000E+00  0.0000E+00  0.0000E+00  0.0000E+00  0.0000E+00  0.0000E+00  0.0000E+00  0.0000E+00  0.0000E+00
    -49.996  0.0000E+00  0.0000E+00  0.0000E+00  0.0000E+00  0.0000E+00  0.0000E+00  0.0000E+00  0.0000E+00  0.0000E+00  0.0000E+00  0.0000E+00  0.0000E+00  0.0000E+00  0.0000E+00  0.0000E+00  0.0000E+00  0.0000E+00  0.0000E+00
    -49.728  0.0000E+00  0.0000E+00  0.0000E+00  0.0000E+00  0.0000E+00  0.0000E+00  0.0000E+00  0.0000E+00  0.0000E+00  0.0000E+00  0.0000E+00  0.0000E+00  0.0000E+00  0.0000E+00  0.0000E+00  0.0000E+00  0.0000E+00  0.0000E+00
    -49.459  0.0000E+00  0.0000E+00  0.0000E+00  0.0000E+00  0.0000E+00  0.0000E+00  0.0000E+00  0.0000E+00  0.0000E+00  0.0000E+00  0.0000E+00  0.0000E+00  0.0000E+00  0.0000E+00  0.0000E+00  0.0000E+00  0.0000E+00  0.0000E+00
    -49.190  0.0000E+00  0.0000E+00  0.0000E+00  0.0000E+00  0.0000E+00  0.0000E+00  0.0000E+00  0.0000E+00  0.0000E+00  0.0000E+00  0.0000E+00  0.0000E+00  0.0000E+00  0.0000E+00  0.0000E+00  0.0000E+00  0.0000E+00  0.0000E+00
    -48.922  0.0000E+00  0.0000E+00  0.0000E+00  0.0000E+00  0.0000E+00  0.0000E+00  0.0000E+00  0.0000E+00  0.0000E+00  0.0000E+00  0.0000E+00  0.0000E+00  0.0000E+00  0.0000E+00  0.0000E+00  0.0000E+00  0.0000E+00  0.0000E+00
    -48.653  0.0000E+00  0.0000E+00  0.0000E+00  0.0000E+00  0.0000E+00  0.0000E+00  0.0000E+00  0.0000E+00  0.0000E+00  0.0000E+00  0.0000E+00  0.0000E+00  0.0000E+00  0.0000E+00  0.0000E+00  0.0000E+00  0.0000E+00  0.0000E+00
    -48.384  0.0000E+00  0.0000E+00  0.0000E+00  0.0000E+00  0.0000E+00  0.0000E+00  0.0000E+00  0.0000E+00  0.0000E+00  0.0000E+00  0.0000E+00  0.0000E+00  0.0000E+00  0.0000E+00  0.0000E+00  0.0000E+00  0.0000E+00  0.0000E+00
    -48.116  0.0000E+00  0.0000E+00  0.0000E+00  0.0000E+00  0.0000E+00  0.0000E+00  0.0000E+00  0.0000E+00  0.0000E+00  0.0000E+00  0.0000E+00  0.0000E+00  0.0000E+00  0.0000E+00  0.0000E+00  0.0000E+00  0.0000E+00  0.0000E+00
    -47.847  0.0000E+00  0.0000E+00  0.0000E+00  0.0000E+00  0.0000E+00  0.0000E+00  0.0000E+00  0.0000E+00  0.0000E+00  0.0000E+00  0.0000E+00  0.0000E+00  0.0000E+00  0.0000E+00  0.0000E+00  0.0000E+00  0.0000E+00  0.0000E+00
    -47.579  0.0000E+00  0.0000E+00  0.0000E+00  0.0000E+00  0.0000E+00  0.0000E+00  0.0000E+00  0.0000E+00  0.0000E+00  0.0000E+00  0.0000E+00  0.0000E+00  0.0000E+00  0.0000E+00  0.0000E+00  0.0000E+00  0.0000E+00  0.0000E+00
    -47.310  0.0000E+00  0.0000E+00  0.0000E+00  0.0000E+00  0.0000E+00  0.0000E+00  0.0000E+00  0.0000E+00  0.0000E+00  0.0000E+00  0.0000E+00  0.0000E+00  0.0000E+00  0.0000E+00  0.0000E+00  0.0000E+00  0.0000E+00  0.0000E+00
    -47.041  0.0000E+00  0.0000E+00  0.0000E+00  0.0000E+00  0.0000E+00  0.0000E+00  0.0000E+00  0.0000E+00  0.0000E+00  0.0000E+00  0.0000E+00  0.0000E+00  0.0000E+00  0.0000E+00  0.0000E+00  0.0000E+00  0.0000E+00  0.0000E+00
    -46.773  0.0000E+00  0.0000E+00  0.0000E+00  0.0000E+00  0.0000E+00  0.0000E+00  0.0000E+00  0.0000E+00  0.0000E+00  0.0000E+00  0.0000E+00  0.0000E+00  0.0000E+00  0.0000E+00  0.0000E+00  0.0000E+00  0.0000E+00  0.0000E+00
    -46.504  0.0000E+00  0.0000E+00  0.0000E+00  0.0000E+00  0.0000E+00  0.0000E+00  0.0000E+00  0.0000E+00  0.0000E+00  0.0000E+00  0.0000E+00  0.0000E+00  0.0000E+00  0.0000E+00  0.0000E+00  0.0000E+00  0.0000E+00  0.0000E+00
    -46.235  0.0000E+00  0.0000E+00  0.0000E+00  0.0000E+00  0.0000E+00  0.0000E+00  0.0000E+00  0.0000E+00  0.0000E+00  0.0000E+00  0.0000E+00  0.0000E+00  0.0000E+00  0.0000E+00  0.0000E+00  0.0000E+00  0.0000E+00  0.0000E+00
    -45.967  0.0000E+00  0.0000E+00  0.0000E+00  0.0000E+00  0.0000E+00  0.0000E+00  0.0000E+00  0.0000E+00  0.0000E+00  0.0000E+00  0.0000E+00  0.0000E+00  0.0000E+00  0.0000E+00  0.0000E+00  0.0000E+00  0.0000E+00  0.0000E+00
    -45.698  0.0000E+00  0.0000E+00  0.0000E+00  0.0000E+00  0.0000E+00  0.0000E+00  0.0000E+00  0.0000E+00  0.0000E+00  0.0000E+00  0.0000E+00  0.0000E+00  0.0000E+00  0.0000E+00  0.0000E+00  0.0000E+00  0.0000E+00  0.0000E+00
    -45.429  0.0000E+00  0.0000E+00  0.0000E+00  0.0000E+00  0.0000E+00  0.0000E+00  0.0000E+00  0.0000E+00  0.0000E+00  0.0000E+00  0.0000E+00  0.0000E+00  0.0000E+00  0.0000E+00  0.0000E+00  0.0000E+00  0.0000E+00  0.0000E+00