   2   2   1   0
  0.1792227E+02  0.3297168E-09  0.3297168E-09  0.3297168E-09  0.5000000E-15
  1.000000000000000E-004
  CAR 
 unknown system                          
     18.24640671    -61.24309140  301      6.56842113      1.00000000
    -61.243  0.0000E+00  0.0000E+00  0.0000E+00  0.0000E+00
    -60.978  0.0000E+00  0.0000E+00  0.0000E+00  0.0000E+00
    -60.713  0.0000E+00  0.0000E+00  0.0000E+00  0.0000E+00
    -60.448  0.0000E+00  0.0000E+00  0.0000E+00  0.0000E+00
    -60.183  0.0000E+00  0.0000E+00  0.0000E+00  0.0000E+00
    -59.918  0.0000E+00  0.0000E+00  0.0000E+00  0.0000E+00
    -59.653  0.0000E+00  0.0000E+00  0.0000E+00  0.0000E+00
    -59.388  0.0000E+00  0.0000E+00  0.0000E+00  0.0000E+00
    -59.123  0.0000E+00  0.0000E+00  0.0000E+00  0.0000E+00
    -58.858  0.0000E+00  0.0000E+00  0.0000E+00  0.0000E+00
    -58.593  0.0000E+00  0.0000E+00  0.0000E+00  0.0000E+00
    -58.328  0.0000E+00  0.0000E+00  0.0000E+00  0.0000E+00
    -58.064  0.4338E-03  0.8545E-05  0.1150E-03  0.2264E-05
    -57.799  0.8527E-01  0.2827E-02  0.2271E-01  0.7512E-03
    -57.534  0.5017E+01  0.5193E+00  0.1352E+01  0.1384E+00
    -57.269  0.2427E+01  0.6495E+01  0.1995E+01  0.1859E+01
    -57.004  0.0000E+00  0.4058E+00  0.2000E+01  0.1999E+01
    -56.739  0.0000E+00  0.0000E+00  0.2000E+01  0.2000E+01
    -56.474  0.0000E+00  0.0000E+00  0.2000E+01  0.2000E+01
    -56.209  0.0000E+00  0.0000E+00  0.2000E+01  0.2000E+01
    -55.944  0.0000E+00  0.0000E+00  0.2000E+01  0.2000E+01
    -55.679  0.0000E+00  0.0000E+00  0.2000E+01  0.2000E+01
    -55.414  0.0000E+00  0.0000E+00  0.2000E+01  0.2000E+01
    -55.149  0.0000E+00  0.0000E+00  0.2000E+01  0.2000E+01
    -54.884  0.0000E+00  0.0000E+00  0.2000E+01  0.2000E+01
    -54.619  0.0000E+00  0.0000E+00  0.2000E+01  0.2000E+01
    -54.354  0.0000E+00  0.0000E+00  0.2000E+01  0.2000E+01
    -54.089  0.0000E+00  0.0000E+00  0.2000E+01  0.2000E+01
    -53.824  0.0000E+00  0.0000E+00  0.2000E+01  0.2000E+01
    -53.559  0.0000E+00  0.0000E+00  0.2000E+01  0.2000E+01
    -53.294  0.0000E+00  0.0000E+00  0.2000E+01  0.2000E+01
    -53.029  0.0000E+00  0.0000E+00  0.2000E+01  0.2000E+01
    -52.764  0.0000E+00  0.0000E+00  0.2000E+01  0.2000E+01
    -52.499  0.0000E+00  0.0000E+00  0.2000E+01  0.2000E+01
    -52.234  0.0000E+00  0.0000E+00  0.2000E+01  0.2000E+01
    -51.969  0.0000E+00  0.0000E+00  0.2000E+01  0.2000E+01
    -51.704  0.0000E+00  0.0000E+00  0.2000E+01  0.2000E+01
    -51.439  0.0000E+00  0.0000E+00  0.2000E+01  0.2000E+01
    -51.174  0.0000E+00  0.0000E+00  0.2000E+01  0.2000E+01
    -50.909  0.0000E+00  0.0000E+00  0.2000E+01  0.2000E+01
    -50.644  0.0000E+00  0.0000E+00  0.2000E+01  0.2000E+01
    -50.380  0.0000E+00  0.0000E+00  0.2000E+01  0.2000E+01
    -50.115  0.0000E+00  0.0000E+00  0.2000E+01  0.2000E+01
    -49.850  0.0000E+00  0.0000E+00  0.2000E+01  0.2000E+01
    -49.585  0.0000E+00  0.0000E+00  0.2000E+01  0.2000E+01
    -49.320  0.0000E+00  0.0000E+00  0.2000E+01  0.2000E+01
    -49.055  0.0000E+00  0.0000E+00  0.2000E+01  0.2000E+01
    -48.790  0.0000E+00  0.0000E+00  0.2000E+01  0.2000E+01
    -48.525  0.0000E+00  0.0000E+00  0.2000E+01  0.2000E+01
    -48.260  0.0000E+00  0.0000E+00  0.2000E+01  0.2000E+01
    -47.995  0.0000E+00  0.0000E+00  0.2000E+01  0.2000E+01
    -47.730  0.0000E+00  0.0000E+00  0.2000E+01  0.2000E+01
    -47.465  0.0000E+00  0.0000E+00  0.2000E+01  0.2000E+01
    -47.200  0.0000E+00  0.0000E+00  0.2000E+01  0.2000E+01
    -46.935  0.0000E+00  0.0000E+00  0.2000E+01  0.2000E+01
    -46.670  0.0000E+00  0.0000E+00  0.2000E+01  0.2000E+01
    -46.405  0.0000E+00  0.0000E+00  0.2000E+01  0.2000E+01
    -46.140  0.0000E+00  0.0000E+00  0.2000E+01  0.2000E+01
    -45.875  0.0000E+00  0.0000E+00  0.2000E+01  0.2000E+01
    -45.610  0.0000E+00  0.0000E+00  0.2000E+01  0.2000E+01
    -45.345  0.0000E+00  0.0000E+00  0.2000E+01  0.2000E+01
    -45.080  0.0000E+00  0.0000E+00  0.2000E+01  0.2000E+01
    -44.815  0.0000E+00  0.0000E+00  0.2000E+01  0.2000E+01
    -44.550  0.0000E+00  0.0000E+00  0.2000E+01  0.2000E+01
    -44.285  0.0000E+00  0.0000E+00  0.2000E+01  0.2000E+01
    -44.020  0.0000E+00  0.0000E+00  0.2000E+01  0.2000E+01
    -43.755  0.0000E+00  0.0000E+00  0.2000E+01  0.2000E+01
    -43.490  0.0000E+00  0.0000E+00  0.2000E+01  0.2000E+01
    -43.225  0.0000E+00  0.0000E+00  0.2000E+01  0.2000E+01
    -42.961  0.0000E+00  0.0000E+00  0.2000E+01  0.2000E+01
    -42.696  0.0000E+00  0.0000E+00  0.2000E+01  0.2000E+01
    -42.431  0.0000E+00  0.0000E+00  0.2000E+01  0.2000E+01
    -42.166  0.0000E+00  0.0000E+00  0.2000E+01  0.2000E+01
    -41.901  0.0000E+00  0.0000E+00  0.2000E+01  0.2000E+01
    -41.636  0.0000E+00  0.0000E+00  0.2000E+01  0.2000E+01
    -41.371  0.0000E+00  0.0000E+00  0.2000E+01  0.2000E+01
    -41.106  0.0000E+00  0.0000E+00  0.2000E+01  0.2000E+01
    -40.841  0.0000E+00  0.0000E+00  0.2000E+01  0.2000E+01
    -40.576  0.0000E+00  0.0000E+00  0.2000E+01  0.2000E+01
    -40.311  0.0000E+00  0.0000E+00  0.2000E+01  0.2000E+01
    -40.046  0.0000E+00  0.0000E+00  0.2000E+01  0.2000E+01
    -39.781  0.0000E+00  0.0000E+00  0.2000E+01  0.2000E+01
    -39.516  0.0000E+00  0.0000E+00  0.2000E+01  0.2000E+01
    -39.251  0.0000E+00  0.0000E+00  0.2000E+01  0.2000E+01
    -38.986  0.0000E+00  0.0000E+00  0.2000E+01  0.2000E+01
    -38.721  0.0000E+00  0.0000E+00  0.2000E+01  0.2000E+01
    -38.456  0.0000E+00  0.0000E+00  0.2000E+01  0.2000E+01
    -38.191  0.0000E+00  0.0000E+00  0.2000E+01  0.2000E+01
    -37.926  0.0000E+00  0.0000E+00  0.2000E+01  0.2000E+01
    -37.661  0.0000E+00  0.0000E+00  0.2000E+01  0.2000E+01
    -37.396  0.0000E+00  0.0000E+00  0.2000E+01  0.2000E+01
    -37.131  0.0000E+00  0.0000E+00  0.2000E+01  0.2000E+01
    -36.866  0.0000E+00  0.0000E+00  0.2000E+01  0.2000E+01
    -36.601  0.0000E+00  0.0000E+00  0.2000E+01  0.2000E+01
    -36.336  0.0000E+00  0.0000E+00  0.2000E+01  0.2000E+01
    -36.071  0.0000E+00  0.0000E+00  0.2000E+01  0.2000E+01
    -35.806  0.0000E+00  0.0000E+00  0.2000E+01  0.2000E+01
    -35.541  0.0000E+00  0.0000E+00  0.2000E+01  0.2000E+01
    -35.277  0.0000E+00  0.0000E+00  0.2000E+01  0.2000E+01
    -35.012  0.0000E+00  0.0000E+00  0.2000E+01  0.2000E+01
    -34.747  0.0000E+00  0.0000E+00  0.2000E+01  0.2000E+01
    -34.482  0.0000E+00  0.0000E+00  0.2000E+01  0.2000E+01
    -34.217  0.0000E+00  0.0000E+00  0.2000E+01  0.2000E+01
    -33.952  0.0000E+00  0.0000E+00  0.2000E+01  0.2000E+01
    -33.687  0.0000E+00  0.0000E+00  0.2000E+01  0.2000E+01
    -33.422  0.0000E+00  0.0000E+00  0.2000E+01  0.2000E+01
    -33.157  0.0000E+00  0.0000E+00  0.2000E+01  0.2000E+01
    -32.892  0.0000E+00  0.0000E+00  0.2000E+01  0.2000E+01
    -32.627  0.0000E+00  0.0000E+00  0.2000E+01  0.2000E+01
    -32.362  0.0000E+00  0.0000E+00  0.2000E+01  0.2000E+01
    -32.097  0.6122E-04  0.0000E+00  0.2000E+01  0.2000E+01
    -31.832  0.1319E-01  0.4438E-03  0.2004E+01  0.2000E+01
    -31.567  0.1883E+01  0.8815E-01  0.2503E+01  0.2023E+01
    -31.302  0.1381E+02  0.5681E+01  0.6161E+01  0.3529E+01
    -31.037  0.6692E+01  0.1469E+02  0.7975E+01  0.7422E+01
    -30.772  0.0000E+00  0.1958E+01  0.8000E+01  0.7996E+01
    -30.507  0.0000E+00  0.0000E+00  0.8000E+01  0.8000E+01
    -30.242  0.0000E+00  0.0000E+00  0.8000E+01  0.8000E+01
    -29.977  0.0000E+00  0.0000E+00  0.8000E+01  0.8000E+01
    -29.712  0.0000E+00  0.0000E+00  0.8000E+01  0.8000E+01
    -29.447  0.0000E+00  0.0000E+00  0.8000E+01  0.8000E+01
    -29.182  0.0000E+00  0.0000E+00  0.8000E+01  0.8000E+01
    -28.917  0.0000E+00  0.0000E+00  0.8000E+01  0.8000E+01
    -28.652  0.0000E+00  0.0000E+00  0.8000E+01  0.8000E+01
    -28.387  0.0000E+00  0.0000E+00  0.8000E+01  0.8000E+01
    -28.122  0.0000E+00  0.0000E+00  0.8000E+01  0.8000E+01
    -27.858  0.0000E+00  0.0000E+00  0.8000E+01  0.8000E+01
    -27.593  0.0000E+00  0.0000E+00  0.8000E+01  0.8000E+01
    -27.328  0.0000E+00  0.0000E+00  0.8000E+01  0.8000E+01
    -27.063  0.0000E+00  0.0000E+00  0.8000E+01  0.8000E+01
    -26.798  0.0000E+00  0.0000E+00  0.8000E+01  0.8000E+01
    -26.533  0.0000E+00  0.0000E+00  0.8000E+01  0.8000E+01
    -26.268  0.0000E+00  0.0000E+00  0.8000E+01  0.8000E+01
    -26.003  0.0000E+00  0.0000E+00  0.8000E+01  0.8000E+01
    -25.738  0.0000E+00  0.0000E+00  0.8000E+01  0.8000E+01
    -25.473  0.0000E+00  0.0000E+00  0.8000E+01  0.8000E+01
    -25.208  0.0000E+00  0.0000E+00  0.8000E+01  0.8000E+01
    -24.943  0.0000E+00  0.0000E+00  0.8000E+01  0.8000E+01
    -24.678  0.0000E+00  0.0000E+00  0.8000E+01  0.8000E+01
    -24.413  0.0000E+00  0.0000E+00  0.8000E+01  0.8000E+01
    -24.148  0.0000E+00  0.0000E+00  0.8000E+01  0.8000E+01
    -23.883  0.0000E+00  0.0000E+00  0.8000E+01  0.8000E+01
    -23.618  0.0000E+00  0.0000E+00  0.8000E+01  0.8000E+01
    -23.353  0.0000E+00  0.0000E+00  0.8000E+01  0.8000E+01
    -23.088  0.0000E+00  0.0000E+00  0.8000E+01  0.8000E+01
    -22.823  0.0000E+00  0.0000E+00  0.8000E+01  0.8000E+01
    -22.558  0.0000E+00  0.0000E+00  0.8000E+01  0.8000E+01
    -22.293  0.0000E+00  0.0000E+00  0.8000E+01  0.8000E+01
    -22.028  0.0000E+00  0.0000E+00  0.8000E+01  0.8000E+01
    -21.763  0.0000E+00  0.0000E+00  0.8000E+01  0.8000E+01
    -21.498  0.0000E+00  0.0000E+00  0.8000E+01  0.8000E+01
    -21.233  0.0000E+00  0.0000E+00  0.8000E+01  0.8000E+01
    -20.968  0.0000E+00  0.0000E+00  0.8000E+01  0.8000E+01
    -20.703  0.0000E+00  0.0000E+00  0.8000E+01  0.8000E+01
    -20.438  0.0000E+00  0.0000E+00  0.8000E+01  0.8000E+01
    -20.174  0.0000E+00  0.0000E+00  0.8000E+01  0.8000E+01
    -19.909  0.0000E+00  0.0000E+00  0.8000E+01  0.8000E+01
    -19.644  0.0000E+00  0.0000E+00  0.8000E+01  0.8000E+01
    -19.379  0.0000E+00  0.0000E+00  0.8000E+01  0.8000E+01
    -19.114  0.0000E+00  0.0000E+00  0.8000E+01  0.8000E+01
    -18.849  0.0000E+00  0.0000E+00  0.8000E+01  0.8000E+01
    -18.584  0.0000E+00  0.0000E+00  0.8000E+01  0.8000E+01
    -18.319  0.0000E+00  0.0000E+00  0.8000E+01  0.8000E+01
    -18.054  0.0000E+00  0.0000E+00  0.8000E+01  0.8000E+01
    -17.789  0.0000E+00  0.0000E+00  0.8000E+01  0.8000E+01
    -17.524  0.0000E+00  0.0000E+00  0.8000E+01  0.8000E+01
    -17.259  0.0000E+00  0.0000E+00  0.8000E+01  0.8000E+01
    -16.994  0.0000E+00  0.0000E+00  0.8000E+01  0.8000E+01
    -16.729  0.0000E+00  0.0000E+00  0.8000E+01  0.8000E+01
    -16.464  0.0000E+00  0.0000E+00  0.8000E+01  0.8000E+01
    -16.199  0.0000E+00  0.0000E+00  0.8000E+01  0.8000E+01
    -15.934  0.0000E+00  0.0000E+00  0.8000E+01  0.8000E+01
    -15.669  0.0000E+00  0.0000E+00  0.8000E+01  0.8000E+01
    -15.404  0.0000E+00  0.0000E+00  0.8000E+01  0.8000E+01
    -15.139  0.0000E+00  0.0000E+00  0.8000E+01  0.8000E+01
    -14.874  0.0000E+00  0.0000E+00  0.8000E+01  0.8000E+01
    -14.609  0.0000E+00  0.0000E+00  0.8000E+01  0.8000E+01
    -14.344  0.0000E+00  0.0000E+00  0.8000E+01  0.8000E+01
    -14.079  0.0000E+00  0.0000E+00  0.8000E+01  0.8000E+01
    -13.814  0.0000E+00  0.0000E+00  0.8000E+01  0.8000E+01
    -13.549  0.0000E+00  0.0000E+00  0.8000E+01  0.8000E+01
    -13.284  0.0000E+00  0.0000E+00  0.8000E+01  0.8000E+01
    -13.019  0.0000E+00  0.0000E+00  0.8000E+01  0.8000E+01
    -12.754  0.0000E+00  0.0000E+00  0.8000E+01  0.8000E+01
    -12.490  0.0000E+00  0.0000E+00  0.8000E+01  0.8000E+01
    -12.225  0.0000E+00  0.0000E+00  0.8000E+01  0.8000E+01
    -11.960  0.0000E+00  0.0000E+00  0.8000E+01  0.8000E+01
    -11.695  0.0000E+00  0.0000E+00  0.8000E+01  0.8000E+01
    -11.430  0.0000E+00  0.0000E+00  0.8000E+01  0.8000E+01
    -11.165  0.0000E+00  0.0000E+00  0.8000E+01  0.8000E+01
    -10.900  0.0000E+00  0.0000E+00  0.8000E+01  0.8000E+01
    -10.635  0.0000E+00  0.0000E+00  0.8000E+01  0.8000E+01
    -10.370  0.0000E+00  0.0000E+00  0.8000E+01  0.8000E+01
    -10.105  0.0000E+00  0.0000E+00  0.8000E+01  0.8000E+01
     -9.840  0.0000E+00  0.0000E+00  0.8000E+01  0.8000E+01
     -9.575  0.0000E+00  0.0000E+00  0.8000E+01  0.8000E+01
     -9.310  0.0000E+00  0.0000E+00  0.8000E+01  0.8000E+01
     -9.045  0.0000E+00  0.0000E+00  0.8000E+01  0.8000E+01
     -8.780  0.0000E+00  0.0000E+00  0.8000E+01  0.8000E+01
     -8.515  0.0000E+00  0.0000E+00  0.8000E+01  0.8000E+01
     -8.250  0.0000E+00  0.0000E+00  0.8000E+01  0.8000E+01
     -7.985  0.0000E+00  0.0000E+00  0.8000E+01  0.8000E+01
     -7.720  0.0000E+00  0.0000E+00  0.8000E+01  0.8000E+01
     -7.455  0.0000E+00  0.0000E+00  0.8000E+01  0.8000E+01
     -7.190  0.0000E+00  0.0000E+00  0.8000E+01  0.8000E+01
     -6.925  0.0000E+00  0.0000E+00  0.8000E+01  0.8000E+01
     -6.660  0.0000E+00  0.0000E+00  0.8000E+01  0.8000E+01
     -6.395  0.0000E+00  0.0000E+00  0.8000E+01  0.8000E+01
     -6.130  0.0000E+00  0.0000E+00  0.8000E+01  0.8000E+01
     -5.865  0.0000E+00  0.0000E+00  0.8000E+01  0.8000E+01
     -5.600  0.0000E+00  0.0000E+00  0.8000E+01  0.8000E+01
     -5.335  0.0000E+00  0.0000E+00  0.8000E+01  0.8000E+01
     -5.071  0.0000E+00  0.0000E+00  0.8000E+01  0.8000E+01
     -4.806  0.0000E+00  0.0000E+00  0.8000E+01  0.8000E+01
     -4.541  0.0000E+00  0.0000E+00  0.8000E+01  0.8000E+01
     -4.276  0.0000E+00  0.0000E+00  0.8000E+01  0.8000E+01
     -4.011  0.0000E+00  0.0000E+00  0.8000E+01  0.8000E+01
     -3.746  0.0000E+00  0.0000E+00  0.8000E+01  0.8000E+01
     -3.481  0.0000E+00  0.0000E+00  0.8000E+01  0.8000E+01
     -3.216  0.0000E+00  0.0000E+00  0.8000E+01  0.8000E+01
     -2.951  0.0000E+00  0.0000E+00  0.8000E+01  0.8000E+01
     -2.686  0.0000E+00  0.0000E+00  0.8000E+01  0.8000E+01
     -2.421  0.0000E+00  0.0000E+00  0.8000E+01  0.8000E+01
     -2.156  0.0000E+00  0.0000E+00  0.8000E+01  0.8000E+01
     -1.891  0.0000E+00  0.0000E+00  0.8000E+01  0.8000E+01
     -1.626  0.0000E+00  0.0000E+00  0.8000E+01  0.8000E+01
     -1.361  0.0000E+00  0.0000E+00  0.8000E+01  0.8000E+01
     -1.096  0.0000E+00  0.0000E+00  0.8000E+01  0.8000E+01
     -0.831  0.0000E+00  0.0000E+00  0.8000E+01  0.8000E+01
     -0.566  0.0000E+00  0.0000E+00  0.8000E+01  0.8000E+01
     -0.301  0.0000E+00  0.0000E+00  0.8000E+01  0.8000E+01
     -0.036  0.0000E+00  0.0000E+00  0.8000E+01  0.8000E+01
      0.229  0.4793E-06  0.4983E-07  0.8000E+01  0.8000E+01
      0.494  0.9586E-04  0.1159E-04  0.8000E+01  0.8000E+01
      0.759  0.8413E-02  0.1849E-02  0.8002E+01  0.8000E+01
      1.024  0.4272E-01  0.3066E-01  0.8014E+01  0.8009E+01
      1.289  0.7877E-01  0.6457E-01  0.8035E+01  0.8026E+01
      1.554  0.8649E-01  0.7350E-01  0.8058E+01  0.8046E+01
      1.819  0.1125E+00  0.1166E+00  0.8088E+01  0.8077E+01
      2.084  0.1171E+00  0.1253E+00  0.8120E+01  0.8110E+01
      2.349  0.1743E+00  0.1387E+00  0.8167E+01  0.8147E+01
      2.613  0.1613E+00  0.1794E+00  0.8210E+01  0.8195E+01
      2.878  0.2009E+00  0.1582E+00  0.8264E+01  0.8237E+01
      3.143  0.2492E+00  0.2403E+00  0.8331E+01  0.8301E+01
      3.408  0.2472E+00  0.2405E+00  0.8397E+01  0.8365E+01
      3.673  0.3348E+00  0.2820E+00  0.8486E+01  0.8441E+01
      3.938  0.4436E+00  0.3832E+00  0.8604E+01  0.8543E+01
      4.203  0.6052E+00  0.4922E+00  0.8765E+01  0.8676E+01
      4.468  0.9649E+00  0.8304E+00  0.9021E+01  0.8899E+01
      4.733  0.1052E+01  0.9461E+00  0.9303E+01  0.9152E+01
      4.998  0.1528E+01  0.1419E+01  0.9711E+01  0.9530E+01
      5.263  0.1217E+01  0.1424E+01  0.1004E+02  0.9912E+01
      5.528  0.8853E+00  0.9310E+00  0.1028E+02  0.1017E+02
      5.793  0.2488E+01  0.1216E+01  0.1094E+02  0.1049E+02
      6.058  0.3053E+01  0.2916E+01  0.1176E+02  0.1127E+02
      6.323  0.2890E+01  0.2937E+01  0.1254E+02  0.1205E+02
      6.588  0.2673E+01  0.2919E+01  0.1326E+02  0.1284E+02
      6.853  0.1513E+01  0.2165E+01  0.1367E+02  0.1342E+02
      7.118  0.6538E+00  0.1190E+01  0.1385E+02  0.1374E+02
      7.383  0.7660E+00  0.6005E+00  0.1406E+02  0.1391E+02
      7.648  0.1323E+01  0.8915E+00  0.1441E+02  0.1415E+02
      7.913  0.2286E+01  0.1774E+01  0.1502E+02  0.1462E+02
      8.178  0.3360E+01  0.2878E+01  0.1592E+02  0.1538E+02
      8.443  0.4409E+01  0.3937E+01  0.1710E+02  0.1644E+02
      8.708  0.3281E+01  0.4356E+01  0.1798E+02  0.1761E+02
      8.973  0.1743E+01  0.2007E+01  0.1845E+02  0.1816E+02
      9.238  0.1062E+01  0.1490E+01  0.1874E+02  0.1856E+02
      9.503  0.4891E+00  0.9064E+00  0.1888E+02  0.1880E+02
      9.768  0.5433E+00  0.5067E+00  0.1902E+02  0.1894E+02
     10.032  0.4165E+00  0.4635E+00  0.1913E+02  0.1906E+02
     10.297  0.5107E+00  0.4836E+00  0.1927E+02  0.1919E+02
     10.562  0.2802E+00  0.4266E+00  0.1935E+02  0.1931E+02
     10.827  0.3975E+00  0.3120E+00  0.1945E+02  0.1939E+02
     11.092  0.3922E+00  0.3918E+00  0.1956E+02  0.1950E+02
     11.357  0.2597E+00  0.3712E+00  0.1963E+02  0.1960E+02
     11.622  0.2335E+00  0.1967E+00  0.1969E+02  0.1965E+02
     11.887  0.2902E+00  0.3039E+00  0.1977E+02  0.1973E+02
     12.152  0.1868E+00  0.2187E+00  0.1982E+02  0.1979E+02
     12.417  0.2174E+00  0.2333E+00  0.1988E+02  0.1985E+02
     12.682  0.1202E+00  0.1564E+00  0.1991E+02  0.1990E+02
     12.947  0.8144E-01  0.8386E-01  0.1993E+02  0.1992E+02
     13.212  0.1183E+00  0.1047E+00  0.1996E+02  0.1995E+02
     13.477  0.6151E-01  0.1114E+00  0.1998E+02  0.1998E+02
     13.742  0.5462E-02  0.1486E-01  0.1998E+02  0.1998E+02
     14.007  0.3990E-01  0.1644E-01  0.1999E+02  0.1998E+02
     14.272  0.2365E-01  0.2882E-01  0.2000E+02  0.1999E+02
     14.537  0.4447E-02  0.1476E-01  0.2000E+02  0.2000E+02
     14.802  0.0000E+00  0.1245E-01  0.2000E+02  0.2000E+02
     15.067  0.0000E+00  0.0000E+00  0.2000E+02  0.2000E+02
     15.332  0.0000E+00  0.0000E+00  0.2000E+02  0.2000E+02
     15.597  0.0000E+00  0.0000E+00  0.2000E+02  0.2000E+02
     15.862  0.0000E+00  0.0000E+00  0.2000E+02  0.2000E+02
     16.127  0.0000E+00  0.0000E+00  0.2000E+02  0.2000E+02
     16.392  0.0000E+00  0.0000E+00  0.2000E+02  0.2000E+02
     16.657  0.0000E+00  0.0000E+00  0.2000E+02  0.2000E+02
     16.922  0.0000E+00  0.0000E+00  0.2000E+02  0.2000E+02
     17.187  0.0000E+00  0.0000E+00  0.2000E+02  0.2000E+02
     17.452  0.0000E+00  0.0000E+00  0.2000E+02  0.2000E+02
     17.716  0.0000E+00  0.0000E+00  0.2000E+02  0.2000E+02
     17.981  0.0000E+00  0.0000E+00  0.2000E+02  0.2000E+02
     18.246  0.0000E+00  0.0000E+00  0.2000E+02  0.2000E+02
     18.24640671    -61.24309140  301      6.56842113      1.00000000
    -61.243  0.0000E+00  0.0000E+00  0.0000E+00  0.0000E+00  0.0000E+00  0.0000E+00  0.0000E+00  0.0000E+00  0.0000E+00  0.0000E+00  0.0000E+00  0.0000E+00  0.0000E+00  0.0000E+00  0.0000E+00  0.0000E+00  0.0000E+00  0.0000E+00
    -60.978  0.0000E+00  0.0000E+00  0.0000E+00  0.0000E+00  0.0000E+00  0.0000E+00  0.0000E+00  0.0000E+00  0.0000E+00  0.0000E+00  0.0000E+00  0.0000E+00  0.0000E+00  0.0000E+00  0.0000E+00  0.0000E+00  0.0000E+00  0.0000E+00
    -60.713  0.0000E+00  0.0000E+00  0.0000E+00  0.0000E+00  0.0000E+00  0.0000E+00  0.0000E+00  0.0000E+00  0.0000E+00  0.0000E+00  0.0000E+00  0.0000E+00  0.0000E+00  0.0000E+00  0.0000E+00  0.0000E+00  0.0000E+00  0.0000E+00
    -60.448  0.0000E+00  0.0000E+00  0.0000E+00  0.0000E+00  0.0000E+00  0.0000E+00  0.0000E+00  0.0000E+00  0.0000E+00  0.0000E+00  0.0000E+00  0.0000E+00  0.0000E+00  0.0000E+00  0.0000E+00  0.0000E+00  0.0000E+00  0.0000E+00
    -60.183  0.0000E+00  0.0000E+00  0.0000E+00  0.0000E+00  0.0000E+00  0.0000E+00  0.0000E+00  0.0000E+00  0.0000E+00  0.0000E+00  0.0000E+00  0.0000E+00  0.0000E+00  0.0000E+00  0.0000E+00  0.0000E+00  0.0000E+00  0.0000E+00
    -59.918  0.0000E+00  0.0000E+00  0.0000E+00  0.0000E+00  0.0000E+00  0.0000E+00  0.0000E+00  0.0000E+00  0.0000E+00  0.0000E+00  0.0000E+00  0.0000E+00  0.0000E+00  0.0000E+00  0.0000E+00  0.0000E+00  0.0000E+00  0.0000E+00
    -59.653  0.0000E+00  0.0000E+00  0.0000E+00  0.0000E+00  0.0000E+00  0.0000E+00  0.0000E+00  0.0000E+00  0.0000E+00  0.0000E+00  0.0000E+00  0.0000E+00  0.0000E+00  0.0000E+00  0.0000E+00  0.0000E+00  0.0000E+00  0.0000E+00
    -59.388  0.0000E+00  0.0000E+00  0.0000E+00  0.0000E+00  0.0000E+00  0.0000E+00  0.0000E+00  0.0000E+00  0.0000E+00  0.0000E+00  0.0000E+00  0.0000E+00  0.0000E+00  0.0000E+00  0.0000E+00  0.0000E+00  0.0000E+00  0.0000E+00
    -59.123  0.0000E+00  0.0000E+00  0.0000E+00  0.0000E+00  0.0000E+00  0.0000E+00  0.0000E+00  0.0000E+00  0.0000E+00  0.0000E+00  0.0000E+00  0.0000E+00  0.0000E+00  0.0000E+00  0.0000E+00  0.0000E+00  0.0000E+00  0.0000E+00
    -58.858  0.0000E+00  0.0000E+00  0.0000E+00  0.0000E+00  0.0000E+00  0.0000E+00  0.0000E+00  0.0000E+00  0.0000E+00  0.0000E+00  0.0000E+00  0.0000E+00  0.0000E+00  0.0000E+00  0.0000E+00  0.0000E+00  0.0000E+00  0.0000E+00
    -58.593  0.0000E+00  0.0000E+00  0.0000E+00  0.0000E+00  0.0000E+00  0.0000E+00  0.0000E+00  0.0000E+00  0.0000E+00  0.0000E+00  0.0000E+00  0.0000E+00  0.0000E+00  0.0000E+00  0.0000E+00  0.0000E+00  0.0000E+00  0.0000E+00
    -58.328  0.0000E+00  0.0000E+00  0.0000E+00  0.0000E+00  0.0000E+00  0.0000E+00  0.0000E+00  0.0000E+00  0.0000E+00  0.0000E+00  0.0000E+00  0.0000E+00  0.0000E+00  0.0000E+00  0.0000E+00  0.0000E+00  0.0000E+00  0.0000E+00
    -58.064  0.2161E-03  0.4255E-05  0.2503E-09  0.5981E-11  0.2503E-09  0.5981E-11  0.2503E-09  0.5981E-11  0.2738E-09  0.4861E-11  0.2738E-09  0.4861E-11  0.6745E-11  0.1285E-12  0.2738E-09  0.4861E-11  0.6745E-11  0.1285E-12
    -57.799  0.4248E-01  0.1408E-02  0.4914E-07  0.1633E-08  0.4914E-07  0.1633E-08  0.4914E-07  0.1633E-08  0.5393E-07  0.1779E-08  0.5393E-07  0.1779E-08  0.1328E-08  0.4447E-10  0.5393E-07  0.1779E-08  0.1328E-08  0.4447E-10
    -57.534  0.2499E+01  0.2587E+00  0.2715E-05  0.2983E-06  0.2715E-05  0.2983E-06  0.2715E-05  0.2983E-06  0.3383E-05  0.3307E-06  0.3383E-05  0.3307E-06  0.8168E-07  0.8244E-08  0.3383E-05  0.3307E-06  0.8168E-07  0.8244E-08
    -57.269  0.1210E+01  0.3236E+01  0.1213E-05  0.3433E-05  0.1213E-05  0.3433E-05  0.1213E-05  0.3433E-05  0.1642E-05  0.4390E-05  0.1642E-05  0.4390E-05  0.3922E-07  0.1071E-06  0.1642E-05  0.4390E-05  0.3922E-07  0.1071E-06
    -57.004  0.0000E+00  0.2023E+00  0.0000E+00  0.1615E-06  0.0000E+00  0.1615E-06  0.0000E+00  0.1615E-06  0.0000E+00  0.2780E-06  0.0000E+00  0.2780E-06  0.0000E+00  0.6300E-08  0.0000E+00  0.2780E-06  0.0000E+00  0.6300E-08
    -56.739  0.0000E+00  0.0000E+00  0.0000E+00  0.0000E+00  0.0000E+00  0.0000E+00  0.0000E+00  0.0000E+00  0.0000E+00  0.0000E+00  0.0000E+00  0.0000E+00  0.0000E+00  0.0000E+00  0.0000E+00  0.0000E+00  0.0000E+00  0.0000E+00
    -56.474  0.0000E+00  0.0000E+00  0.0000E+00  0.0000E+00  0.0000E+00  0.0000E+00  0.0000E+00  0.0000E+00  0.0000E+00  0.0000E+00  0.0000E+00  0.0000E+00  0.0000E+00  0.0000E+00  0.0000E+00  0.0000E+00  0.0000E+00  0.0000E+00
    -56.209  0.0000E+00  0.0000E+00  0.0000E+00  0.0000E+00  0.0000E+00  0.0000E+00  0.0000E+00  0.0000E+00  0.0000E+00  0.0000E+00  0.0000E+00  0.0000E+00  0.0000E+00  0.0000E+00  0.0000E+00  0.0000E+00  0.0000E+00  0.0000E+00
    -55.944  0.0000E+00  0.0000E+00  0.0000E+00  0.0000E+00  0.0000E+00  0.0000E+00  0.0000E+00  0.0000E+00  0.0000E+00  0.0000E+00  0.0000E+00  0.0000E+00  0.0000E+00  0.0000E+00  0.0000E+00  0.0000E+00  0.0000E+00  0.0000E+00
    -55.679  0.0000E+00  0.0000E+00  0.0000E+00  0.0000E+00  0.0000E+00  0.0000E+00  0.0000E+00  0.0000E+00  0.0000E+00  0.0000E+00  0.0000E+00  0.0000E+00  0.0000E+00  0.0000E+00  0.0000E+00  0.0000E+00  0.0000E+00  0.0000E+00
    -55.414  0.0000E+00  0.0000E+00  0.0000E+00  0.0000E+00  0.0000E+00  0.0000E+00  0.0000E+00  0.0000E+00  0.0000E+00  0.0000E+00  0.0000E+00  0.0000E+00  0.0000E+00  0.0000E+00  0.0000E+00  0.0000E+00  0.0000E+00  0.0000E+00
    -55.149  0.0000E+00  0.0000E+00  0.0000E+00  0.0000E+00  0.0000E+00  0.0000E+00  0.0000E+00  0.0000E+00  0.0000E+00  0.0000E+00  0.0000E+00  0.0000E+00  0.0000E+00  0.0000E+00  0.0000E+00  0.0000E+00  0.0000E+00  0.0000E+00
    -54.884  0.0000E+00  0.0000E+00  0.0000E+00  0.0000E+00  0.0000E+00  0.0000E+00  0.0000E+00  0.0000E+00  0.0000E+00  0.0000E+00  0.0000E+00  0.0000E+00  0.0000E+00  0.0000E+00  0.0000E+00  0.0000E+00  0.0000E+00  0.0000E+00
    -54.619  0.0000E+00  0.0000E+00  0.0000E+00  0.0000E+00  0.0000E+00  0.0000E+00  0.0000E+00  0.0000E+00  0.0000E+00  0.0000E+00  0.0000E+00  0.0000E+00  0.0000E+00  0.0000E+00  0.0000E+00  0.0000E+00  0.0000E+00  0.0000E+00
    -54.354  0.0000E+00  0.0000E+00  0.0000E+00  0.0000E+00  0.0000E+00  0.0000E+00  0.0000E+00  0.0000E+00  0.0000E+00  0.0000E+00  0.0000E+00  0.0000E+00  0.0000E+00  0.0000E+00  0.0000E+00  0.0000E+00  0.0000E+00  0.0000E+00
    -54.089  0.0000E+00  0.0000E+00  0.0000E+00  0.0000E+00  0.0000E+00  0.0000E+00  0.0000E+00  0.0000E+00  0.0000E+00  0.0000E+00  0.0000E+00  0.0000E+00  0.0000E+00  0.0000E+00  0.0000E+00  0.0000E+00  0.0000E+00  0.0000E+00
    -53.824  0.0000E+00  0.0000E+00  0.0000E+00  0.0000E+00  0.0000E+00  0.0000E+00  0.0000E+00  0.0000E+00  0.0000E+00  0.0000E+00  0.0000E+00  0.0000E+00  0.0000E+00  0.0000E+00  0.0000E+00  0.0000E+00  0.0000E+00  0.0000E+00
    -53.559  0.0000E+00  0.0000E+00  0.0000E+00  0.0000E+00  0.0000E+00  0.0000E+00  0.0000E+00  0.0000E+00  0.0000E+00  0.0000E+00  0.0000E+00  0.0000E+00  0.0000E+00  0.0000E+00  0.0000E+00  0.0000E+00  0.0000E+00  0.0000E+00
    -53.294  0.0000E+00  0.0000E+00  0.0000E+00  0.0000E+00  0.0000E+00  0.0000E+00  0.0000E+00  0.0000E+00  0.0000E+00  0.0000E+00  0.0000E+00  0.0000E+00  0.0000E+00  0.0000E+00  0.0000E+00  0.0000E+00  0.0000E+00  0.0000E+00
    -53.029  0.0000E+00  0.0000E+00  0.0000E+00  0.0000E+00  0.0000E+00  0.0000E+00  0.0000E+00  0.0000E+00  0.0000E+00  0.0000E+00  0.0000E+00  0.0000E+00  0.0000E+00  0.0000E+00  0.0000E+00  0.0000E+00  0.0000E+00  0.0000E+00
    -52.764  0.0000E+00  0.0000E+00  0.0000E+00  0.0000E+00  0.0000E+00  0.0000E+00  0.0000E+00  0.0000E+00  0.0000E+00  0.0000E+00  0.0000E+00  0.0000E+00  0.0000E+00  0.0000E+00  0.0000E+00  0.0000E+00  0.0000E+00  0.0000E+00
    -52.499  0.0000E+00  0.0000E+00  0.0000E+00  0.0000E+00  0.0000E+00  0.0000E+00  0.0000E+00  0.0000E+00  0.0000E+00  0.0000E+00  0.0000E+00  0.0000E+00  0.0000E+00  0.0000E+00  0.0000E+00  0.0000E+00  0.0000E+00  0.0000E+00
    -52.234  0.0000E+00  0.0000E+00  0.0000E+00  0.0000E+00  0.0000E+00  0.0000E+00  0.0000E+00  0.0000E+00  0.0000E+00  0.0000E+00  0.0000E+00  0.0000E+00  0.0000E+00  0.0000E+00  0.0000E+00  0.0000E+00  0.0000E+00  0.0000E+00
    -51.969  0.0000E+00  0.0000E+00  0.0000E+00  0.0000E+00  0.0000E+00  0.0000E+00  0.0000E+00  0.0000E+00  0.0000E+00  0.0000E+00  0.0000E+00  0.0000E+00  0.0000E+00  0.0000E+00  0.0000E+00  0.0000E+00  0.0000E+00  0.0000E+00
    -51.704  0.0000E+00  0.0000E+00  0.0000E+00  0.0000E+00  0.0000E+00  0.0000E+00  0.0000E+00  0.0000E+00  0.0000E+00  0.0000E+00  0.0000E+00  0.0000E+00  0.0000E+00  0.0000E+00  0.0000E+00  0.0000E+00  0.0000E+00  0.0000E+00
    -51.439  0.0000E+00  0.0000E+00  0.0000E+00  0.0000E+00  0.0000E+00  0.0000E+00  0.0000E+00  0.0000E+00  0.0000E+00  0.0000E+00  0.0000E+00  0.0000E+00  0.0000E+00  0.0000E+00  0.0000E+00  0.0000E+00  0.0000E+00  0.0000E+00
    -51.174  0.0000E+00  0.0000E+00  0.0000E+00  0.0000E+00  0.0000E+00  0.0000E+00  0.0000E+00  0.0000E+00  0.0000E+00  0.0000E+00  0.0000E+00  0.0000E+00  0.0000E+00  0.0000E+00  0.0000E+00  0.0000E+00  0.0000E+00  0.0000E+00
    -50.909  0.0000E+00  0.0000E+00  0.0000E+00  0.0000E+00  0.0000E+00  0.0000E+00  0.0000E+00  0.0000E+00  0.0000E+00  0.0000E+00  0.0000E+00  0.0000E+00  0.0000E+00  0.0000E+00  0.0000E+00  0.0000E+00  0.0000E+00  0.0000E+00
    -50.644  0.0000E+00  0.0000E+00  0.0000E+00  0.0000E+00  0.0000E+00  0.0000E+00  0.0000E+00  0.0000E+00  0.0000E+00  0.0000E+00  0.0000E+00  0.0000E+00  0.0000E+00  0.0000E+00  0.0000E+00  0.0000E+00  0.0000E+00  0.0000E+00
    -50.380  0.0000E+00  0.0000E+00  0.0000E+00  0.0000E+00  0.0000E+00  0.0000E+00  0.0000E+00  0.0000E+00  0.0000E+00  0.0000E+00  0.0000E+00  0.0000E+00  0.0000E+00  0.0000E+00  0.0000E+00  0.0000E+00  0.0000E+00  0.0000E+00
    -50.115  0.0000E+00  0.0000E+00  0.0000E+00  0.0000E+00  0.0000E+00  0.0000E+00  0.0000E+00  0.0000E+00  0.0000E+00  0.0000E+00  0.0000E+00  0.0000E+00  0.0000E+00  0.0000E+00  0.0000E+00  0.0000E+00  0.0000E+00  0.0000E+00
    -49.850  0.0000E+00  0.0000E+00  0.0000E+00  0.0000E+00  0.0000E+00  0.0000E+00  0.0000E+00  0.0000E+00  0.0000E+00  0.0000E+00  0.0000E+00  0.0000E+00  0.0000E+00  0.0000E+00  0.0000E+00  0.0000E+00  0.0000E+00  0.0000E+00
    -49.585  0.0000E+00  0.0000E+00  0.0000E+00  0.0000E+00  0.0000E+00  0.0000E+00  0.0000E+00  0.0000E+00  0.0000E+00  0.0000E+00  0.0000E+00  0.0000E+00  0.0000E+00  0.0000E+00  0.0000E+00  0.0000E+00  0.0000E+00  0.0000E+00
    -49.320  0.0000E+00  0.0000E+00  0.0000E+00  0.0000E+00  0.0000E+00  0.0000E+00  0.0000E+00  0.0000E+00  0.0000E+00  0.0000E+00  0.0000E+00  0.0000E+00  0.0000E+00  0.0000E+00  0.0000E+00  0.0000E+00  0.0000E+00  0.0000E+00
    -49.055  0.0000E+00  0.0000E+00  0.0000E+00  0.0000E+00  0.0000E+00  0.0000E+00  0.0000E+00  0.0000E+00  0.0000E+00  0.0000E+00  0.0000E+00  0.0000E+00  0.0000E+00  0.0000E+00  0.0000E+00  0.0000E+00  0.0000E+00  0.0000E+00
    -48.790  0.0000E+00  0.0000E+00  0.0000E+00  0.0000E+00  0.0000E+00  0.0000E+00  0.0000E+00  0.0000E+00  0.0000E+00  0.0000E+00  0.0000E+00  0.0000E+00  0.0000E+00  0.0000E+00  0.0000E+00  0.0000E+00  0.0000E+00  0.0000E+00
    -48.525  0.0000E+00  0.0000E+00  0.0000E+00  0.0000E+00  0.0000E+00  0.0000E+00  0.0000E+00  0.0000E+00  0.0000E+00  0.0000E+00  0.0000E+00  0.0000E+00  0.0000E+00  0.0000E+00  0.0000E+00  0.0000E+00  0.0000E+00  0.0000E+00
    -48.260  0.0000E+00  0.0000E+00  0.0000E+00  0.0000E+00  0.0000E+00  0.0000E+00  0.0000E+00  0.0000E+00  0.0000E+00  0.0000E+00  0.0000E+00  0.0000E+00  0.0000E+00  0.0000E+00  0.0000E+00  0.0000E+00  0.0000E+00  0.0000E+00
    -47.995  0.0000E+00  0.0000E+00  0.0000E+00  0.0000E+00  0.0000E+00  0.0000E+00  0.0000E+00  0.0000E+00  0.0000E+00  0.0000E+00  0.0000E+00  0.0000E+00  0.0000E+00  0.0000E+00  0.0000E+00  0.0000E+00  0.0000E+00  0.0000E+00