   2   2   1   0
  0.1118404E+02  0.2817580E-09  0.2817580E-09  0.2817580E-09  0.5000000E-15
  1.000000000000000E-004
  CAR 
 unknown system                          
     28.17038790    -55.12507019  301     12.24545106      1.00000000
    -55.125  0.0000E+00  0.0000E+00  0.0000E+00  0.0000E+00
    -54.847  0.0000E+00  0.0000E+00  0.0000E+00  0.0000E+00
    -54.570  0.0000E+00  0.0000E+00  0.0000E+00  0.0000E+00
    -54.292  0.0000E+00  0.0000E+00  0.0000E+00  0.0000E+00
    -54.014  0.0000E+00  0.0000E+00  0.0000E+00  0.0000E+00
    -53.737  0.0000E+00  0.0000E+00  0.0000E+00  0.0000E+00
    -53.459  0.0000E+00  0.0000E+00  0.0000E+00  0.0000E+00
    -53.182  0.0000E+00  0.0000E+00  0.0000E+00  0.0000E+00
    -52.904  0.0000E+00  0.0000E+00  0.0000E+00  0.0000E+00
    -52.626  0.0000E+00  0.0000E+00  0.0000E+00  0.0000E+00
    -52.349  0.0000E+00  0.0000E+00  0.0000E+00  0.0000E+00
    -52.071  0.0000E+00  0.0000E+00  0.0000E+00  0.0000E+00
    -51.793  0.1006E-04  0.1057E-04  0.2795E-05  0.2936E-05
    -51.516  0.2740E-02  0.2863E-02  0.7636E-03  0.7979E-03
    -51.238  0.3036E+00  0.3114E+00  0.8505E-01  0.8725E-01
    -50.960  0.2849E+01  0.2887E+01  0.8762E+00  0.8889E+00
    -50.683  0.3798E+01  0.3761E+01  0.1939E+01  0.1942E+01
    -50.405  0.1531E+00  0.1422E+00  0.2000E+01  0.2000E+01
    -50.127  0.0000E+00  0.0000E+00  0.2000E+01  0.2000E+01
    -49.850  0.0000E+00  0.0000E+00  0.2000E+01  0.2000E+01
    -49.572  0.0000E+00  0.0000E+00  0.2000E+01  0.2000E+01
    -49.294  0.0000E+00  0.0000E+00  0.2000E+01  0.2000E+01
    -49.017  0.0000E+00  0.0000E+00  0.2000E+01  0.2000E+01
    -48.739  0.0000E+00  0.0000E+00  0.2000E+01  0.2000E+01
    -48.461  0.0000E+00  0.0000E+00  0.2000E+01  0.2000E+01
    -48.184  0.0000E+00  0.0000E+00  0.2000E+01  0.2000E+01
    -47.906  0.0000E+00  0.0000E+00  0.2000E+01  0.2000E+01
    -47.628  0.0000E+00  0.0000E+00  0.2000E+01  0.2000E+01
    -47.351  0.0000E+00  0.0000E+00  0.2000E+01  0.2000E+01
    -47.073  0.0000E+00  0.0000E+00  0.2000E+01  0.2000E+01
    -46.796  0.0000E+00  0.0000E+00  0.2000E+01  0.2000E+01
    -46.518  0.0000E+00  0.0000E+00  0.2000E+01  0.2000E+01
    -46.240  0.0000E+00  0.0000E+00  0.2000E+01  0.2000E+01
    -45.963  0.0000E+00  0.0000E+00  0.2000E+01  0.2000E+01
    -45.685  0.0000E+00  0.0000E+00  0.2000E+01  0.2000E+01
    -45.407  0.0000E+00  0.0000E+00  0.2000E+01  0.2000E+01
    -45.130  0.0000E+00  0.0000E+00  0.2000E+01  0.2000E+01
    -44.852  0.0000E+00  0.0000E+00  0.2000E+01  0.2000E+01
    -44.574  0.0000E+00  0.0000E+00  0.2000E+01  0.2000E+01
    -44.297  0.0000E+00  0.0000E+00  0.2000E+01  0.2000E+01
    -44.019  0.0000E+00  0.0000E+00  0.2000E+01  0.2000E+01
    -43.741  0.0000E+00  0.0000E+00  0.2000E+01  0.2000E+01
    -43.464  0.0000E+00  0.0000E+00  0.2000E+01  0.2000E+01
    -43.186  0.0000E+00  0.0000E+00  0.2000E+01  0.2000E+01
    -42.908  0.0000E+00  0.0000E+00  0.2000E+01  0.2000E+01
    -42.631  0.0000E+00  0.0000E+00  0.2000E+01  0.2000E+01
    -42.353  0.0000E+00  0.0000E+00  0.2000E+01  0.2000E+01
    -42.075  0.0000E+00  0.0000E+00  0.2000E+01  0.2000E+01
    -41.798  0.0000E+00  0.0000E+00  0.2000E+01  0.2000E+01
    -41.520  0.0000E+00  0.0000E+00  0.2000E+01  0.2000E+01
    -41.242  0.0000E+00  0.0000E+00  0.2000E+01  0.2000E+01
    -40.965  0.0000E+00  0.0000E+00  0.2000E+01  0.2000E+01
    -40.687  0.0000E+00  0.0000E+00  0.2000E+01  0.2000E+01
    -40.410  0.0000E+00  0.0000E+00  0.2000E+01  0.2000E+01
    -40.132  0.0000E+00  0.0000E+00  0.2000E+01  0.2000E+01
    -39.854  0.0000E+00  0.0000E+00  0.2000E+01  0.2000E+01
    -39.577  0.0000E+00  0.0000E+00  0.2000E+01  0.2000E+01
    -39.299  0.0000E+00  0.0000E+00  0.2000E+01  0.2000E+01
    -39.021  0.0000E+00  0.0000E+00  0.2000E+01  0.2000E+01
    -38.744  0.0000E+00  0.0000E+00  0.2000E+01  0.2000E+01
    -38.466  0.0000E+00  0.0000E+00  0.2000E+01  0.2000E+01
    -38.188  0.0000E+00  0.0000E+00  0.2000E+01  0.2000E+01
    -37.911  0.0000E+00  0.0000E+00  0.2000E+01  0.2000E+01
    -37.633  0.0000E+00  0.0000E+00  0.2000E+01  0.2000E+01
    -37.355  0.0000E+00  0.0000E+00  0.2000E+01  0.2000E+01
    -37.078  0.0000E+00  0.0000E+00  0.2000E+01  0.2000E+01
    -36.800  0.0000E+00  0.0000E+00  0.2000E+01  0.2000E+01
    -36.522  0.0000E+00  0.0000E+00  0.2000E+01  0.2000E+01
    -36.245  0.0000E+00  0.0000E+00  0.2000E+01  0.2000E+01
    -35.967  0.0000E+00  0.0000E+00  0.2000E+01  0.2000E+01
    -35.689  0.0000E+00  0.0000E+00  0.2000E+01  0.2000E+01
    -35.412  0.0000E+00  0.0000E+00  0.2000E+01  0.2000E+01
    -35.134  0.0000E+00  0.0000E+00  0.2000E+01  0.2000E+01
    -34.857  0.0000E+00  0.0000E+00  0.2000E+01  0.2000E+01
    -34.579  0.0000E+00  0.0000E+00  0.2000E+01  0.2000E+01
    -34.301  0.0000E+00  0.0000E+00  0.2000E+01  0.2000E+01
    -34.024  0.0000E+00  0.0000E+00  0.2000E+01  0.2000E+01
    -33.746  0.0000E+00  0.0000E+00  0.2000E+01  0.2000E+01
    -33.468  0.0000E+00  0.0000E+00  0.2000E+01  0.2000E+01
    -33.191  0.0000E+00  0.0000E+00  0.2000E+01  0.2000E+01
    -32.913  0.0000E+00  0.0000E+00  0.2000E+01  0.2000E+01
    -32.635  0.0000E+00  0.0000E+00  0.2000E+01  0.2000E+01
    -32.358  0.0000E+00  0.0000E+00  0.2000E+01  0.2000E+01
    -32.080  0.0000E+00  0.0000E+00  0.2000E+01  0.2000E+01
    -31.802  0.0000E+00  0.0000E+00  0.2000E+01  0.2000E+01
    -31.525  0.0000E+00  0.0000E+00  0.2000E+01  0.2000E+01
    -31.247  0.0000E+00  0.0000E+00  0.2000E+01  0.2000E+01
    -30.969  0.0000E+00  0.0000E+00  0.2000E+01  0.2000E+01
    -30.692  0.0000E+00  0.0000E+00  0.2000E+01  0.2000E+01
    -30.414  0.0000E+00  0.0000E+00  0.2000E+01  0.2000E+01
    -30.136  0.0000E+00  0.0000E+00  0.2000E+01  0.2000E+01
    -29.859  0.0000E+00  0.0000E+00  0.2000E+01  0.2000E+01
    -29.581  0.0000E+00  0.0000E+00  0.2000E+01  0.2000E+01
    -29.303  0.0000E+00  0.0000E+00  0.2000E+01  0.2000E+01
    -29.026  0.0000E+00  0.0000E+00  0.2000E+01  0.2000E+01
    -28.748  0.0000E+00  0.0000E+00  0.2000E+01  0.2000E+01
    -28.471  0.0000E+00  0.0000E+00  0.2000E+01  0.2000E+01
    -28.193  0.0000E+00  0.0000E+00  0.2000E+01  0.2000E+01
    -27.915  0.0000E+00  0.0000E+00  0.2000E+01  0.2000E+01
    -27.638  0.0000E+00  0.0000E+00  0.2000E+01  0.2000E+01
    -27.360  0.0000E+00  0.0000E+00  0.2000E+01  0.2000E+01
    -27.082  0.0000E+00  0.0000E+00  0.2000E+01  0.2000E+01
    -26.805  0.0000E+00  0.0000E+00  0.2000E+01  0.2000E+01
    -26.527  0.0000E+00  0.0000E+00  0.2000E+01  0.2000E+01
    -26.249  0.3017E-04  0.3110E-04  0.2000E+01  0.2000E+01
    -25.972  0.7922E-02  0.8164E-02  0.2002E+01  0.2002E+01
    -25.694  0.6759E+00  0.6863E+00  0.2190E+01  0.2193E+01
    -25.416  0.3439E+01  0.3449E+01  0.3145E+01  0.3150E+01
    -25.139  0.2781E+01  0.2777E+01  0.3930E+01  0.3934E+01
    -24.861  0.3211E+01  0.3217E+01  0.4831E+01  0.4838E+01
    -24.583  0.4307E+01  0.4307E+01  0.6039E+01  0.6046E+01
    -24.306  0.5244E+01  0.5243E+01  0.7511E+01  0.7519E+01
    -24.028  0.1673E+01  0.1641E+01  0.7996E+01  0.7996E+01
    -23.750  0.0000E+00  0.0000E+00  0.8000E+01  0.8000E+01
    -23.473  0.0000E+00  0.0000E+00  0.8000E+01  0.8000E+01
    -23.195  0.0000E+00  0.0000E+00  0.8000E+01  0.8000E+01
    -22.917  0.0000E+00  0.0000E+00  0.8000E+01  0.8000E+01
    -22.640  0.0000E+00  0.0000E+00  0.8000E+01  0.8000E+01
    -22.362  0.0000E+00  0.0000E+00  0.8000E+01  0.8000E+01
    -22.085  0.0000E+00  0.0000E+00  0.8000E+01  0.8000E+01
    -21.807  0.0000E+00  0.0000E+00  0.8000E+01  0.8000E+01
    -21.529  0.0000E+00  0.0000E+00  0.8000E+01  0.8000E+01
    -21.252  0.0000E+00  0.0000E+00  0.8000E+01  0.8000E+01
    -20.974  0.0000E+00  0.0000E+00  0.8000E+01  0.8000E+01
    -20.696  0.0000E+00  0.0000E+00  0.8000E+01  0.8000E+01
    -20.419  0.0000E+00  0.0000E+00  0.8000E+01  0.8000E+01
    -20.141  0.0000E+00  0.0000E+00  0.8000E+01  0.8000E+01
    -19.863  0.0000E+00  0.0000E+00  0.8000E+01  0.8000E+01
    -19.586  0.0000E+00  0.0000E+00  0.8000E+01  0.8000E+01
    -19.308  0.0000E+00  0.0000E+00  0.8000E+01  0.8000E+01
    -19.030  0.0000E+00  0.0000E+00  0.8000E+01  0.8000E+01
    -18.753  0.0000E+00  0.0000E+00  0.8000E+01  0.8000E+01
    -18.475  0.0000E+00  0.0000E+00  0.8000E+01  0.8000E+01
    -18.197  0.0000E+00  0.0000E+00  0.8000E+01  0.8000E+01
    -17.920  0.0000E+00  0.0000E+00  0.8000E+01  0.8000E+01
    -17.642  0.0000E+00  0.0000E+00  0.8000E+01  0.8000E+01
    -17.364  0.0000E+00  0.0000E+00  0.8000E+01  0.8000E+01
    -17.087  0.0000E+00  0.0000E+00  0.8000E+01  0.8000E+01
    -16.809  0.0000E+00  0.0000E+00  0.8000E+01  0.8000E+01
    -16.532  0.0000E+00  0.0000E+00  0.8000E+01  0.8000E+01
    -16.254  0.0000E+00  0.0000E+00  0.8000E+01  0.8000E+01
    -15.976  0.0000E+00  0.0000E+00  0.8000E+01  0.8000E+01
    -15.699  0.0000E+00  0.0000E+00  0.8000E+01  0.8000E+01
    -15.421  0.0000E+00  0.0000E+00  0.8000E+01  0.8000E+01
    -15.143  0.0000E+00  0.0000E+00  0.8000E+01  0.8000E+01
    -14.866  0.0000E+00  0.0000E+00  0.8000E+01  0.8000E+01
    -14.588  0.0000E+00  0.0000E+00  0.8000E+01  0.8000E+01
    -14.310  0.0000E+00  0.0000E+00  0.8000E+01  0.8000E+01
    -14.033  0.0000E+00  0.0000E+00  0.8000E+01  0.8000E+01
    -13.755  0.0000E+00  0.0000E+00  0.8000E+01  0.8000E+01
    -13.477  0.0000E+00  0.0000E+00  0.8000E+01  0.8000E+01
    -13.200  0.0000E+00  0.0000E+00  0.8000E+01  0.8000E+01
    -12.922  0.0000E+00  0.0000E+00  0.8000E+01  0.8000E+01
    -12.644  0.0000E+00  0.0000E+00  0.8000E+01  0.8000E+01
    -12.367  0.0000E+00  0.0000E+00  0.8000E+01  0.8000E+01
    -12.089  0.0000E+00  0.0000E+00  0.8000E+01  0.8000E+01
    -11.811  0.0000E+00  0.0000E+00  0.8000E+01  0.8000E+01
    -11.534  0.0000E+00  0.0000E+00  0.8000E+01  0.8000E+01
    -11.256  0.0000E+00  0.0000E+00  0.8000E+01  0.8000E+01
    -10.978  0.0000E+00  0.0000E+00  0.8000E+01  0.8000E+01
    -10.701  0.0000E+00  0.0000E+00  0.8000E+01  0.8000E+01
    -10.423  0.0000E+00  0.0000E+00  0.8000E+01  0.8000E+01
    -10.146  0.0000E+00  0.0000E+00  0.8000E+01  0.8000E+01
     -9.868  0.0000E+00  0.0000E+00  0.8000E+01  0.8000E+01
     -9.590  0.0000E+00  0.0000E+00  0.8000E+01  0.8000E+01
     -9.313  0.0000E+00  0.0000E+00  0.8000E+01  0.8000E+01
     -9.035  0.0000E+00  0.0000E+00  0.8000E+01  0.8000E+01
     -8.757  0.0000E+00  0.0000E+00  0.8000E+01  0.8000E+01
     -8.480  0.0000E+00  0.0000E+00  0.8000E+01  0.8000E+01
     -8.202  0.0000E+00  0.0000E+00  0.8000E+01  0.8000E+01
     -7.924  0.0000E+00  0.0000E+00  0.8000E+01  0.8000E+01
     -7.647  0.0000E+00  0.0000E+00  0.8000E+01  0.8000E+01
     -7.369  0.0000E+00  0.0000E+00  0.8000E+01  0.8000E+01
     -7.091  0.0000E+00  0.0000E+00  0.8000E+01  0.8000E+01
     -6.814  0.0000E+00  0.0000E+00  0.8000E+01  0.8000E+01
     -6.536  0.0000E+00  0.0000E+00  0.8000E+01  0.8000E+01
     -6.258  0.0000E+00  0.0000E+00  0.8000E+01  0.8000E+01
     -5.981  0.0000E+00  0.0000E+00  0.8000E+01  0.8000E+01
     -5.703  0.0000E+00  0.0000E+00  0.8000E+01  0.8000E+01
     -5.425  0.0000E+00  0.0000E+00  0.8000E+01  0.8000E+01
     -5.148  0.0000E+00  0.0000E+00  0.8000E+01  0.8000E+01
     -4.870  0.0000E+00  0.0000E+00  0.8000E+01  0.8000E+01
     -4.592  0.0000E+00  0.0000E+00  0.8000E+01  0.8000E+01
     -4.315  0.0000E+00  0.0000E+00  0.8000E+01  0.8000E+01
     -4.037  0.0000E+00  0.0000E+00  0.8000E+01  0.8000E+01
     -3.760  0.0000E+00  0.0000E+00  0.8000E+01  0.8000E+01
     -3.482  0.0000E+00  0.0000E+00  0.8000E+01  0.8000E+01
     -3.204  0.0000E+00  0.0000E+00  0.8000E+01  0.8000E+01
     -2.927  0.0000E+00  0.0000E+00  0.8000E+01  0.8000E+01
     -2.649  0.0000E+00  0.0000E+00  0.8000E+01  0.8000E+01
     -2.371  0.0000E+00  0.0000E+00  0.8000E+01  0.8000E+01
     -2.094  0.0000E+00  0.0000E+00  0.8000E+01  0.8000E+01
     -1.816  0.0000E+00  0.0000E+00  0.8000E+01  0.8000E+01
     -1.538  0.0000E+00  0.0000E+00  0.8000E+01  0.8000E+01
     -1.261  0.0000E+00  0.0000E+00  0.8000E+01  0.8000E+01
     -0.983  0.0000E+00  0.0000E+00  0.8000E+01  0.8000E+01
     -0.705  0.0000E+00  0.0000E+00  0.8000E+01  0.8000E+01
     -0.428  0.0000E+00  0.0000E+00  0.8000E+01  0.8000E+01
     -0.150  0.0000E+00  0.0000E+00  0.8000E+01  0.8000E+01
      0.128  0.0000E+00  0.0000E+00  0.8000E+01  0.8000E+01
      0.405  0.0000E+00  0.0000E+00  0.8000E+01  0.8000E+01
      0.683  0.0000E+00  0.0000E+00  0.8000E+01  0.8000E+01
      0.961  0.0000E+00  0.0000E+00  0.8000E+01  0.8000E+01
      1.238  0.0000E+00  0.0000E+00  0.8000E+01  0.8000E+01
      1.516  0.0000E+00  0.0000E+00  0.8000E+01  0.8000E+01
      1.793  0.0000E+00  0.0000E+00  0.8000E+01  0.8000E+01
      2.071  0.0000E+00  0.0000E+00  0.8000E+01  0.8000E+01
      2.349  0.0000E+00  0.0000E+00  0.8000E+01  0.8000E+01
      2.626  0.0000E+00  0.0000E+00  0.8000E+01  0.8000E+01
      2.904  0.0000E+00  0.0000E+00  0.8000E+01  0.8000E+01
      3.182  0.0000E+00  0.0000E+00  0.8000E+01  0.8000E+01
      3.459  0.0000E+00  0.0000E+00  0.8000E+01  0.8000E+01
      3.737  0.0000E+00  0.0000E+00  0.8000E+01  0.8000E+01
      4.015  0.0000E+00  0.0000E+00  0.8000E+01  0.8000E+01
      4.292  0.0000E+00  0.0000E+00  0.8000E+01  0.8000E+01
      4.570  0.0000E+00  0.0000E+00  0.8000E+01  0.8000E+01
      4.848  0.1288E-06  0.1346E-06  0.8000E+01  0.8000E+01
      5.125  0.3378E-04  0.3529E-04  0.8000E+01  0.8000E+01
      5.403  0.3321E-02  0.3409E-02  0.8001E+01  0.8001E+01
      5.681  0.2567E-01  0.2584E-01  0.8008E+01  0.8008E+01
      5.958  0.3107E-01  0.3123E-01  0.8017E+01  0.8017E+01
      6.236  0.6558E-01  0.6550E-01  0.8035E+01  0.8035E+01
      6.514  0.4487E-01  0.4529E-01  0.8048E+01  0.8048E+01
      6.791  0.9082E-01  0.9077E-01  0.8073E+01  0.8073E+01
      7.069  0.8536E-01  0.8585E-01  0.8097E+01  0.8098E+01
      7.347  0.7539E-01  0.7500E-01  0.8118E+01  0.8119E+01
      7.624  0.1589E+00  0.1594E+00  0.8163E+01  0.8163E+01
      7.902  0.1368E+00  0.1368E+00  0.8202E+01  0.8202E+01
      8.179  0.1743E+00  0.1747E+00  0.8250E+01  0.8251E+01
      8.457  0.4158E+00  0.4195E+00  0.8366E+01  0.8367E+01
      8.735  0.8525E+00  0.8512E+00  0.8603E+01  0.8604E+01
      9.012  0.9498E+00  0.9472E+00  0.8870E+01  0.8872E+01
      9.290  0.1099E+01  0.1098E+01  0.9179E+01  0.9180E+01
      9.568  0.1385E+01  0.1388E+01  0.9569E+01  0.9571E+01
      9.845  0.1038E+01  0.1034E+01  0.9861E+01  0.9862E+01
     10.123  0.8757E+00  0.8762E+00  0.1011E+02  0.1011E+02
     10.401  0.4848E+00  0.4836E+00  0.1025E+02  0.1025E+02
     10.678  0.1058E+01  0.1065E+01  0.1055E+02  0.1055E+02
     10.956  0.1993E+01  0.1992E+01  0.1110E+02  0.1111E+02
     11.234  0.1383E+01  0.1382E+01  0.1150E+02  0.1150E+02
     11.511  0.1208E+01  0.1210E+01  0.1184E+02  0.1184E+02
     11.789  0.1354E+01  0.1356E+01  0.1222E+02  0.1223E+02
     12.067  0.1806E+01  0.1806E+01  0.1273E+02  0.1273E+02
     12.344  0.1453E+01  0.1450E+01  0.1314E+02  0.1314E+02
     12.622  0.1070E+01  0.1068E+01  0.1344E+02  0.1345E+02
     12.900  0.5952E+00  0.5942E+00  0.1361E+02  0.1362E+02
     13.177  0.4201E+00  0.4196E+00  0.1373E+02  0.1373E+02
     13.455  0.4635E+00  0.4650E+00  0.1386E+02  0.1387E+02
     13.733  0.5337E+00  0.5327E+00  0.1402E+02  0.1402E+02
     14.010  0.6243E+00  0.6252E+00  0.1419E+02  0.1419E+02
     14.288  0.9861E+00  0.9876E+00  0.1447E+02  0.1447E+02
     14.565  0.1173E+01  0.1173E+01  0.1479E+02  0.1480E+02
     14.843  0.1489E+01  0.1489E+01  0.1521E+02  0.1521E+02
     15.121  0.1605E+01  0.1606E+01  0.1567E+02  0.1567E+02
     15.398  0.2012E+01  0.2008E+01  0.1623E+02  0.1623E+02
     15.676  0.2146E+01  0.2143E+01  0.1683E+02  0.1683E+02
     15.954  0.2309E+01  0.2312E+01  0.1748E+02  0.1748E+02
     16.231  0.1243E+01  0.1236E+01  0.1783E+02  0.1783E+02
     16.509  0.9391E+00  0.9395E+00  0.1810E+02  0.1810E+02
     16.787  0.9469E+00  0.9470E+00  0.1837E+02  0.1837E+02
     17.064  0.6768E+00  0.6759E+00  0.1856E+02  0.1856E+02
     17.342  0.4466E+00  0.4471E+00  0.1869E+02  0.1869E+02
     17.620  0.4355E+00  0.4341E+00  0.1881E+02  0.1881E+02
     17.897  0.1904E+00  0.1912E+00  0.1886E+02  0.1886E+02
     18.175  0.4152E+00  0.4149E+00  0.1898E+02  0.1898E+02
     18.453  0.1611E+00  0.1613E+00  0.1903E+02  0.1903E+02
     18.730  0.2619E+00  0.2624E+00  0.1910E+02  0.1910E+02
     19.008  0.3834E+00  0.3837E+00  0.1921E+02  0.1921E+02
     19.286  0.2755E+00  0.2748E+00  0.1928E+02  0.1929E+02
     19.563  0.1409E+00  0.1408E+00  0.1933E+02  0.1933E+02
     19.841  0.2199E+00  0.2214E+00  0.1939E+02  0.1939E+02
     20.118  0.2958E+00  0.2925E+00  0.1947E+02  0.1947E+02
     20.396  0.2652E+00  0.2648E+00  0.1955E+02  0.1955E+02
     20.674  0.2017E+00  0.2018E+00  0.1960E+02  0.1960E+02
     20.951  0.1316E+00  0.1314E+00  0.1964E+02  0.1964E+02
     21.229  0.1961E+00  0.1961E+00  0.1969E+02  0.1969E+02
     21.507  0.2512E+00  0.2519E+00  0.1977E+02  0.1977E+02
     21.784  0.9417E-01  0.9364E-01  0.1979E+02  0.1980E+02
     22.062  0.1575E+00  0.1581E+00  0.1984E+02  0.1984E+02
     22.340  0.1595E+00  0.1589E+00  0.1988E+02  0.1988E+02
     22.617  0.7303E-01  0.7335E-01  0.1990E+02  0.1990E+02
     22.895  0.1139E+00  0.1137E+00  0.1994E+02  0.1994E+02
     23.173  0.6481E-01  0.6470E-01  0.1995E+02  0.1995E+02
     23.450  0.7689E-01  0.7660E-01  0.1998E+02  0.1998E+02
     23.728  0.1104E-01  0.1114E-01  0.1998E+02  0.1998E+02
     24.006  0.2506E-01  0.2529E-01  0.1999E+02  0.1999E+02
     24.283  0.3510E-01  0.3493E-01  0.2000E+02  0.2000E+02
     24.561  0.1196E-01  0.1184E-01  0.2000E+02  0.2000E+02
     24.839  0.0000E+00  0.0000E+00  0.2000E+02  0.2000E+02
     25.116  0.0000E+00  0.0000E+00  0.2000E+02  0.2000E+02
     25.394  0.0000E+00  0.0000E+00  0.2000E+02  0.2000E+02
     25.672  0.0000E+00  0.0000E+00  0.2000E+02  0.2000E+02
     25.949  0.0000E+00  0.0000E+00  0.2000E+02  0.2000E+02
     26.227  0.0000E+00  0.0000E+00  0.2000E+02  0.2000E+02
     26.504  0.0000E+00  0.0000E+00  0.2000E+02  0.2000E+02
     26.782  0.0000E+00  0.0000E+00  0.2000E+02  0.2000E+02
     27.060  0.0000E+00  0.0000E+00  0.2000E+02  0.2000E+02
     27.337  0.0000E+00  0.0000E+00  0.2000E+02  0.2000E+02
     27.615  0.0000E+00  0.0000E+00  0.2000E+02  0.2000E+02
     27.893  0.0000E+00  0.0000E+00  0.2000E+02  0.2000E+02
     28.170  0.0000E+00  0.0000E+00  0.2000E+02  0.2000E+02
     28.17038790    -55.12507019  301     12.24545106      1.00000000
    -55.125  0.0000E+00  0.0000E+00  0.0000E+00  0.0000E+00  0.0000E+00  0.0000E+00  0.0000E+00  0.0000E+00  0.0000E+00  0.0000E+00  0.0000E+00  0.0000E+00  0.0000E+00  0.0000E+00  0.0000E+00  0.0000E+00  0.0000E+00  0.0000E+00
    -54.847  0.0000E+00  0.0000E+00  0.0000E+00  0.0000E+00  0.0000E+00  0.0000E+00  0.0000E+00  0.0000E+00  0.0000E+00  0.0000E+00  0.0000E+00  0.0000E+00  0.0000E+00  0.0000E+00  0.0000E+00  0.0000E+00  0.0000E+00  0.0000E+00
    -54.570  0.0000E+00  0.0000E+00  0.0000E+00  0.0000E+00  0.0000E+00  0.0000E+00  0.0000E+00  0.0000E+00  0.0000E+00  0.0000E+00  0.0000E+00  0.0000E+00  0.0000E+00  0.0000E+00  0.0000E+00  0.0000E+00  0.0000E+00  0.0000E+00
    -54.292  0.0000E+00  0.0000E+00  0.0000E+00  0.0000E+00  0.0000E+00  0.0000E+00  0.0000E+00  0.0000E+00  0.0000E+00  0.0000E+00  0.0000E+00  0.0000E+00  0.0000E+00  0.0000E+00  0.0000E+00  0.0000E+00  0.0000E+00  0.0000E+00
    -54.014  0.0000E+00  0.0000E+00  0.0000E+00  0.0000E+00  0.0000E+00  0.0000E+00  0.0000E+00  0.0000E+00  0.0000E+00  0.0000E+00  0.0000E+00  0.0000E+00  0.0000E+00  0.0000E+00  0.0000E+00  0.0000E+00  0.0000E+00  0.0000E+00
    -53.737  0.0000E+00  0.0000E+00  0.0000E+00  0.0000E+00  0.0000E+00  0.0000E+00  0.0000E+00  0.0000E+00  0.0000E+00  0.0000E+00  0.0000E+00  0.0000E+00  0.0000E+00  0.0000E+00  0.0000E+00  0.0000E+00  0.0000E+00  0.0000E+00
    -53.459  0.0000E+00  0.0000E+00  0.0000E+00  0.0000E+00  0.0000E+00  0.0000E+00  0.0000E+00  0.0000E+00  0.0000E+00  0.0000E+00  0.0000E+00  0.0000E+00  0.0000E+00  0.0000E+00  0.0000E+00  0.0000E+00  0.0000E+00  0.0000E+00
    -53.182  0.0000E+00  0.0000E+00  0.0000E+00  0.0000E+00  0.0000E+00  0.0000E+00  0.0000E+00  0.0000E+00  0.0000E+00  0.0000E+00  0.0000E+00  0.0000E+00  0.0000E+00  0.0000E+00  0.0000E+00  0.0000E+00  0.0000E+00  0.0000E+00
    -52.904  0.0000E+00  0.0000E+00  0.0000E+00  0.0000E+00  0.0000E+00  0.0000E+00  0.0000E+00  0.0000E+00  0.0000E+00  0.0000E+00  0.0000E+00  0.0000E+00  0.0000E+00  0.0000E+00  0.0000E+00  0.0000E+00  0.0000E+00  0.0000E+00
    -52.626  0.0000E+00  0.0000E+00  0.0000E+00  0.0000E+00  0.0000E+00  0.0000E+00  0.0000E+00  0.0000E+00  0.0000E+00  0.0000E+00  0.0000E+00  0.0000E+00  0.0000E+00  0.0000E+00  0.0000E+00  0.0000E+00  0.0000E+00  0.0000E+00
    -52.349  0.0000E+00  0.0000E+00  0.0000E+00  0.0000E+00  0.0000E+00  0.0000E+00  0.0000E+00  0.0000E+00  0.0000E+00  0.0000E+00  0.0000E+00  0.0000E+00  0.0000E+00  0.0000E+00  0.0000E+00  0.0000E+00  0.0000E+00  0.0000E+00
    -52.071  0.0000E+00  0.0000E+00  0.0000E+00  0.0000E+00  0.0000E+00  0.0000E+00  0.0000E+00  0.0000E+00  0.0000E+00  0.0000E+00  0.0000E+00  0.0000E+00  0.0000E+00  0.0000E+00  0.0000E+00  0.0000E+00  0.0000E+00  0.0000E+00
    -51.793  0.4990E-05  0.5243E-05  0.2190E-09  0.2312E-09  0.2190E-09  0.2312E-09  0.2190E-09  0.2312E-09  0.2865E-10  0.3094E-10  0.2865E-10  0.3094E-10  0.2426E-11  0.2583E-11  0.2865E-10  0.3094E-10  0.2426E-11  0.2583E-11
    -51.516  0.1359E-02  0.1420E-02  0.6252E-07  0.6537E-07  0.6252E-07  0.6537E-07  0.6252E-07  0.6537E-07  0.1199E-07  0.1253E-07  0.1199E-07  0.1253E-07  0.8928E-09  0.9344E-09  0.1199E-07  0.1253E-07  0.8928E-09  0.9344E-09
    -51.238  0.1506E+00  0.1545E+00  0.8952E-05  0.9222E-05  0.8952E-05  0.9222E-05  0.8952E-05  0.9222E-05  0.2374E-05  0.2463E-05  0.2374E-05  0.2463E-05  0.1682E-06  0.1745E-06  0.2374E-05  0.2463E-05  0.1682E-06  0.1745E-06
    -50.960  0.1418E+01  0.1437E+01  0.8249E-04  0.8313E-04  0.8249E-04  0.8313E-04  0.8249E-04  0.8313E-04  0.8346E-04  0.8499E-04  0.8346E-04  0.8499E-04  0.4317E-05  0.4382E-05  0.8346E-04  0.8499E-04  0.4317E-05  0.4382E-05
    -50.683  0.1894E+01  0.1875E+01  0.6707E-04  0.6628E-04  0.6707E-04  0.6628E-04  0.6707E-04  0.6628E-04  0.1201E-03  0.1185E-03  0.1201E-03  0.1185E-03  0.5390E-05  0.5312E-05  0.1201E-03  0.1185E-03  0.5390E-05  0.5312E-05
    -50.405  0.7645E-01  0.7102E-01  0.2346E-05  0.2110E-05  0.2346E-05  0.2110E-05  0.2346E-05  0.2110E-05  0.8102E-06  0.6978E-06  0.8102E-06  0.6978E-06  0.6263E-07  0.5310E-07  0.8102E-06  0.6978E-06  0.6263E-07  0.5310E-07
    -50.127  0.0000E+00  0.0000E+00  0.0000E+00  0.0000E+00  0.0000E+00  0.0000E+00  0.0000E+00  0.0000E+00  0.0000E+00  0.0000E+00  0.0000E+00  0.0000E+00  0.0000E+00  0.0000E+00  0.0000E+00  0.0000E+00  0.0000E+00  0.0000E+00
    -49.850  0.0000E+00  0.0000E+00  0.0000E+00  0.0000E+00  0.0000E+00  0.0000E+00  0.0000E+00  0.0000E+00  0.0000E+00  0.0000E+00  0.0000E+00  0.0000E+00  0.0000E+00  0.0000E+00  0.0000E+00  0.0000E+00  0.0000E+00  0.0000E+00
    -49.572  0.0000E+00  0.0000E+00  0.0000E+00  0.0000E+00  0.0000E+00  0.0000E+00  0.0000E+00  0.0000E+00  0.0000E+00  0.0000E+00  0.0000E+00  0.0000E+00  0.0000E+00  0.0000E+00  0.0000E+00  0.0000E+00  0.0000E+00  0.0000E+00
    -49.294  0.0000E+00  0.0000E+00  0.0000E+00  0.0000E+00  0.0000E+00  0.0000E+00  0.0000E+00  0.0000E+00  0.0000E+00  0.0000E+00  0.0000E+00  0.0000E+00  0.0000E+00  0.0000E+00  0.0000E+00  0.0000E+00  0.0000E+00  0.0000E+00
    -49.017  0.0000E+00  0.0000E+00  0.0000E+00  0.0000E+00  0.0000E+00  0.0000E+00  0.0000E+00  0.0000E+00  0.0000E+00  0.0000E+00  0.0000E+00  0.0000E+00  0.0000E+00  0.0000E+00  0.0000E+00  0.0000E+00  0.0000E+00  0.0000E+00
    -48.739  0.0000E+00  0.0000E+00  0.0000E+00  0.0000E+00  0.0000E+00  0.0000E+00  0.0000E+00  0.0000E+00  0.0000E+00  0.0000E+00  0.0000E+00  0.0000E+00  0.0000E+00  0.0000E+00  0.0000E+00  0.0000E+00  0.0000E+00  0.0000E+00
    -48.461  0.0000E+00  0.0000E+00  0.0000E+00  0.0000E+00  0.0000E+00  0.0000E+00  0.0000E+00  0.0000E+00  0.0000E+00  0.0000E+00  0.0000E+00  0.0000E+00  0.0000E+00  0.0000E+00  0.0000E+00  0.0000E+00  0.0000E+00  0.0000E+00
    -48.184  0.0000E+00  0.0000E+00  0.0000E+00  0.0000E+00  0.0000E+00  0.0000E+00  0.0000E+00  0.0000E+00  0.0000E+00  0.0000E+00  0.0000E+00  0.0000E+00  0.0000E+00  0.0000E+00  0.0000E+00  0.0000E+00  0.0000E+00  0.0000E+00
    -47.906  0.0000E+00  0.0000E+00  0.0000E+00  0.0000E+00  0.0000E+00  0.0000E+00  0.0000E+00  0.0000E+00  0.0000E+00  0.0000E+00  0.0000E+00  0.0000E+00  0.0000E+00  0.0000E+00  0.0000E+00  0.0000E+00  0.0000E+00  0.0000E+00
    -47.628  0.0000E+00  0.0000E+00  0.0000E+00  0.0000E+00  0.0000E+00  0.0000E+00  0.0000E+00  0.0000E+00  0.0000E+00  0.0000E+00  0.0000E+00  0.0000E+00  0.0000E+00  0.0000E+00  0.0000E+00  0.0000E+00  0.0000E+00  0.0000E+00
    -47.351  0.0000E+00  0.0000E+00  0.0000E+00  0.0000E+00  0.0000E+00  0.0000E+00  0.0000E+00  0.0000E+00  0.0000E+00  0.0000E+00  0.0000E+00  0.0000E+00  0.0000E+00  0.0000E+00  0.0000E+00  0.0000E+00  0.0000E+00  0.0000E+00
    -47.073  0.0000E+00  0.0000E+00  0.0000E+00  0.0000E+00  0.0000E+00  0.0000E+00  0.0000E+00  0.0000E+00  0.0000E+00  0.0000E+00  0.0000E+00  0.0000E+00  0.0000E+00  0.0000E+00  0.0000E+00  0.0000E+00  0.0000E+00  0.0000E+00
    -46.796  0.0000E+00  0.0000E+00  0.0000E+00  0.0000E+00  0.0000E+00  0.0000E+00  0.0000E+00  0.0000E+00  0.0000E+00  0.0000E+00  0.0000E+00  0.0000E+00  0.0000E+00  0.0000E+00  0.0000E+00  0.0000E+00  0.0000E+00  0.0000E+00
    -46.518  0.0000E+00  0.0000E+00  0.0000E+00  0.0000E+00  0.0000E+00  0.0000E+00  0.0000E+00  0.0000E+00  0.0000E+00  0.0000E+00  0.0000E+00  0.0000E+00  0.0000E+00  0.0000E+00  0.0000E+00  0.0000E+00  0.0000E+00  0.0000E+00
    -46.240  0.0000E+00  0.0000E+00  0.0000E+00  0.0000E+00  0.0000E+00  0.0000E+00  0.0000E+00  0.0000E+00  0.0000E+00  0.0000E+00  0.0000E+00  0.0000E+00  0.0000E+00  0.0000E+00  0.0000E+00  0.0000E+00  0.0000E+00  0.0000E+00
    -45.963  0.0000E+00  0.0000E+00  0.0000E+00  0.0000E+00  0.0000E+00  0.0000E+00  0.0000E+00  0.0000E+00  0.0000E+00  0.0000E+00  0.0000E+00  0.0000E+00  0.0000E+00  0.0000E+00  0.0000E+00  0.0000E+00  0.0000E+00  0.0000E+00
    -45.685  0.0000E+00  0.0000E+00  0.0000E+00  0.0000E+00  0.0000E+00  0.0000E+00  0.0000E+00  0.0000E+00  0.0000E+00  0.0000E+00  0.0000E+00  0.0000E+00  0.0000E+00  0.0000E+00  0.0000E+00  0.0000E+00  0.0000E+00  0.0000E+00
    -45.407  0.0000E+00  0.0000E+00  0.0000E+00  0.0000E+00  0.0000E+00  0.0000E+00  0.0000E+00  0.0000E+00  0.0000E+00  0.0000E+00  0.0000E+00  0.0000E+00  0.0000E+00  0.0000E+00  0.0000E+00  0.0000E+00  0.0000E+00  0.0000E+00
    -45.130  0.0000E+00  0.0000E+00  0.0000E+00  0.0000E+00  0.0000E+00  0.0000E+00  0.0000E+00  0.0000E+00  0.0000E+00  0.0000E+00  0.0000E+00  0.0000E+00  0.0000E+00  0.0000E+00  0.0000E+00  0.0000E+00  0.0000E+00  0.0000E+00
    -44.852  0.0000E+00  0.0000E+00  0.0000E+00  0.0000E+00  0.0000E+00  0.0000E+00  0.0000E+00  0.0000E+00  0.0000E+00  0.0000E+00  0.0000E+00  0.0000E+00  0.0000E+00  0.0000E+00  0.0000E+00  0.0000E+00  0.0000E+00  0.0000E+00
    -44.574  0.0000E+00  0.0000E+00  0.0000E+00  0.0000E+00  0.0000E+00  0.0000E+00  0.0000E+00  0.0000E+00  0.0000E+00  0.0000E+00  0.0000E+00  0.0000E+00  0.0000E+00  0.0000E+00  0.0000E+00  0.0000E+00  0.0000E+00  0.0000E+00
    -44.297  0.0000E+00  0.0000E+00  0.0000E+00  0.0000E+00  0.0000E+00  0.0000E+00  0.0000E+00  0.0000E+00  0.0000E+00  0.0000E+00  0.0000E+00  0.0000E+00  0.0000E+00  0.0000E+00  0.0000E+00  0.0000E+00  0.0000E+00  0.0000E+00
    -44.019  0.0000E+00  0.0000E+00  0.0000E+00  0.0000E+00  0.0000E+00  0.0000E+00  0.0000E+00  0.0000E+00  0.0000E+00  0.0000E+00  0.0000E+00  0.0000E+00  0.0000E+00  0.0000E+00  0.0000E+00  0.0000E+00  0.0000E+00  0.0000E+00
    -43.741  0.0000E+00  0.0000E+00  0.0000E+00  0.0000E+00  0.0000E+00  0.0000E+00  0.0000E+00  0.0000E+00  0.0000E+00  0.0000E+00  0.0000E+00  0.0000E+00  0.0000E+00  0.0000E+00  0.0000E+00  0.0000E+00  0.0000E+00  0.0000E+00
    -43.464  0.0000E+00  0.0000E+00  0.0000E+00  0.0000E+00  0.0000E+00  0.0000E+00  0.0000E+00  0.0000E+00  0.0000E+00  0.0000E+00  0.0000E+00  0.0000E+00  0.0000E+00  0.0000E+00  0.0000E+00  0.0000E+00  0.0000E+00  0.0000E+00
    -43.186  0.0000E+00  0.0000E+00  0.0000E+00  0.0000E+00  0.0000E+00  0.0000E+00  0.0000E+00  0.0000E+00  0.0000E+00  0.0000E+00  0.0000E+00  0.0000E+00  0.0000E+00  0.0000E+00  0.0000E+00  0.0000E+00  0.0000E+00  0.0000E+00
    -42.908  0.0000E+00  0.0000E+00  0.0000E+00  0.0000E+00  0.0000E+00  0.0000E+00  0.0000E+00  0.0000E+00  0.0000E+00  0.0000E+00  0.0000E+00  0.0000E+00  0.0000E+00  0.0000E+00  0.0000E+00  0.0000E+00  0.0000E+00  0.0000E+00
    -42.631  0.0000E+00  0.0000E+00  0.0000E+00  0.0000E+00  0.0000E+00  0.0000E+00  0.0000E+00  0.0000E+00  0.0000E+00  0.0000E+00  0.0000E+00  0.0000E+00  0.0000E+00  0.0000E+00  0.0000E+00  0.0000E+00  0.0000E+00  0.0000E+00
    -42.353  0.0000E+00  0.0000E+00  0.0000E+00  0.0000E+00  0.0000E+00  0.0000E+00  0.0000E+00  0.0000E+00  0.0000E+00  0.0000E+00  0.0000E+00  0.0000E+00  0.0000E+00  0.0000E+00  0.0000E+00  0.0000E+00  0.0000E+00  0.0000E+00
    -42.075  0.0000E+00  0.0000E+00  0.0000E+00  0.0000E+00  0.0000E+00  0.0000E+00  0.0000E+00  0.0000E+00  0.0000E+00  0.0000E+00  0.0000E+00  0.0000E+00  0.0000E+00  0.0000E+00  0.0000E+00  0.0000E+00  0.0000E+00  0.0000E+00
    -41.798  0.0000E+00  0.0000E+00  0.0000E+00  0.0000E+00  0.0000E+00  0.0000E+00  0.0000E+00  0.0000E+00  0.0000E+00  0.0000E+00  0.0000E+00  0.0000E+00  0.0000E+00  0.0000E+00  0.0000E+00  0.0000E+00  0.0000E+00  0.0000E+00
    -41.520  0.0000E+00  0.0000E+00  0.0000E+00  0.0000E+00  0.0000E+00  0.0000E+00  0.0000E+00  0.0000E+00  0.0000E+00  0.0000E+00  0.0000E+00  0.0000E+00  0.0000E+00  0.0000E+00  0.0000E+00  0.0000E+00  0.0000E+00  0.0000E+00
    -41.242  0.0000E+00  0.0000E+00  0.0000E+00  0.0000E+00  0.0000E+00  0.0000E+00  0.0000E+00  0.0000E+00  0.0000E+00  0.0000E+00  0.0000E+00  0.0000E+00  0.0000E+00  0.0000E+00  0.0000E+00  0.0000E+00  0.0000E+00  0.0000E+00