   2   2   1   0
  0.9816182E+01  0.2697683E-09  0.2697683E-09  0.2697683E-09  0.5000000E-15
  1.000000000000000E-004
  CAR 
 unknown system                          
     31.96479167    -53.21884676  301     14.26864002      1.00000000
    -53.219  0.0000E+00  0.0000E+00  0.0000E+00  0.0000E+00
    -52.935  0.0000E+00  0.0000E+00  0.0000E+00  0.0000E+00
    -52.651  0.0000E+00  0.0000E+00  0.0000E+00  0.0000E+00
    -52.367  0.0000E+00  0.0000E+00  0.0000E+00  0.0000E+00
    -52.083  0.0000E+00  0.0000E+00  0.0000E+00  0.0000E+00
    -51.799  0.0000E+00  0.0000E+00  0.0000E+00  0.0000E+00
    -51.515  0.0000E+00  0.0000E+00  0.0000E+00  0.0000E+00
    -51.231  0.0000E+00  0.0000E+00  0.0000E+00  0.0000E+00
    -50.947  0.0000E+00  0.0000E+00  0.0000E+00  0.0000E+00
    -50.663  0.0000E+00  0.0000E+00  0.0000E+00  0.0000E+00
    -50.379  0.0000E+00  0.0000E+00  0.0000E+00  0.0000E+00
    -50.095  0.0000E+00  0.0000E+00  0.0000E+00  0.0000E+00
    -49.812  0.3887E-05  0.3935E-05  0.1104E-05  0.1117E-05
    -49.528  0.1177E-02  0.1192E-02  0.3353E-03  0.3395E-03
    -49.244  0.1355E+00  0.1364E+00  0.3881E-01  0.3907E-01
    -48.960  0.8619E+00  0.8643E+00  0.2835E+00  0.2845E+00
    -48.676  0.2934E+01  0.2942E+01  0.1120E+01  0.1123E+01
    -48.392  0.2747E+01  0.2739E+01  0.1910E+01  0.1911E+01
    -48.108  0.2698E+00  0.2681E+00  0.1999E+01  0.1999E+01
    -47.824  0.0000E+00  0.0000E+00  0.2000E+01  0.2000E+01
    -47.540  0.0000E+00  0.0000E+00  0.2000E+01  0.2000E+01
    -47.256  0.0000E+00  0.0000E+00  0.2000E+01  0.2000E+01
    -46.972  0.0000E+00  0.0000E+00  0.2000E+01  0.2000E+01
    -46.688  0.0000E+00  0.0000E+00  0.2000E+01  0.2000E+01
    -46.404  0.0000E+00  0.0000E+00  0.2000E+01  0.2000E+01
    -46.120  0.0000E+00  0.0000E+00  0.2000E+01  0.2000E+01
    -45.836  0.0000E+00  0.0000E+00  0.2000E+01  0.2000E+01
    -45.552  0.0000E+00  0.0000E+00  0.2000E+01  0.2000E+01
    -45.268  0.0000E+00  0.0000E+00  0.2000E+01  0.2000E+01
    -44.984  0.0000E+00  0.0000E+00  0.2000E+01  0.2000E+01
    -44.700  0.0000E+00  0.0000E+00  0.2000E+01  0.2000E+01
    -44.417  0.0000E+00  0.0000E+00  0.2000E+01  0.2000E+01
    -44.133  0.0000E+00  0.0000E+00  0.2000E+01  0.2000E+01
    -43.849  0.0000E+00  0.0000E+00  0.2000E+01  0.2000E+01
    -43.565  0.0000E+00  0.0000E+00  0.2000E+01  0.2000E+01
    -43.281  0.0000E+00  0.0000E+00  0.2000E+01  0.2000E+01
    -42.997  0.0000E+00  0.0000E+00  0.2000E+01  0.2000E+01
    -42.713  0.0000E+00  0.0000E+00  0.2000E+01  0.2000E+01
    -42.429  0.0000E+00  0.0000E+00  0.2000E+01  0.2000E+01
    -42.145  0.0000E+00  0.0000E+00  0.2000E+01  0.2000E+01
    -41.861  0.0000E+00  0.0000E+00  0.2000E+01  0.2000E+01
    -41.577  0.0000E+00  0.0000E+00  0.2000E+01  0.2000E+01
    -41.293  0.0000E+00  0.0000E+00  0.2000E+01  0.2000E+01
    -41.009  0.0000E+00  0.0000E+00  0.2000E+01  0.2000E+01
    -40.725  0.0000E+00  0.0000E+00  0.2000E+01  0.2000E+01
    -40.441  0.0000E+00  0.0000E+00  0.2000E+01  0.2000E+01
    -40.157  0.0000E+00  0.0000E+00  0.2000E+01  0.2000E+01
    -39.873  0.0000E+00  0.0000E+00  0.2000E+01  0.2000E+01
    -39.589  0.0000E+00  0.0000E+00  0.2000E+01  0.2000E+01
    -39.306  0.0000E+00  0.0000E+00  0.2000E+01  0.2000E+01
    -39.022  0.0000E+00  0.0000E+00  0.2000E+01  0.2000E+01
    -38.738  0.0000E+00  0.0000E+00  0.2000E+01  0.2000E+01
    -38.454  0.0000E+00  0.0000E+00  0.2000E+01  0.2000E+01
    -38.170  0.0000E+00  0.0000E+00  0.2000E+01  0.2000E+01
    -37.886  0.0000E+00  0.0000E+00  0.2000E+01  0.2000E+01
    -37.602  0.0000E+00  0.0000E+00  0.2000E+01  0.2000E+01
    -37.318  0.0000E+00  0.0000E+00  0.2000E+01  0.2000E+01
    -37.034  0.0000E+00  0.0000E+00  0.2000E+01  0.2000E+01
    -36.750  0.0000E+00  0.0000E+00  0.2000E+01  0.2000E+01
    -36.466  0.0000E+00  0.0000E+00  0.2000E+01  0.2000E+01
    -36.182  0.0000E+00  0.0000E+00  0.2000E+01  0.2000E+01
    -35.898  0.0000E+00  0.0000E+00  0.2000E+01  0.2000E+01
    -35.614  0.0000E+00  0.0000E+00  0.2000E+01  0.2000E+01
    -35.330  0.0000E+00  0.0000E+00  0.2000E+01  0.2000E+01
    -35.046  0.0000E+00  0.0000E+00  0.2000E+01  0.2000E+01
    -34.762  0.0000E+00  0.0000E+00  0.2000E+01  0.2000E+01
    -34.478  0.0000E+00  0.0000E+00  0.2000E+01  0.2000E+01
    -34.195  0.0000E+00  0.0000E+00  0.2000E+01  0.2000E+01
    -33.911  0.0000E+00  0.0000E+00  0.2000E+01  0.2000E+01
    -33.627  0.0000E+00  0.0000E+00  0.2000E+01  0.2000E+01
    -33.343  0.0000E+00  0.0000E+00  0.2000E+01  0.2000E+01
    -33.059  0.0000E+00  0.0000E+00  0.2000E+01  0.2000E+01
    -32.775  0.0000E+00  0.0000E+00  0.2000E+01  0.2000E+01
    -32.491  0.0000E+00  0.0000E+00  0.2000E+01  0.2000E+01
    -32.207  0.0000E+00  0.0000E+00  0.2000E+01  0.2000E+01
    -31.923  0.0000E+00  0.0000E+00  0.2000E+01  0.2000E+01
    -31.639  0.0000E+00  0.0000E+00  0.2000E+01  0.2000E+01
    -31.355  0.0000E+00  0.0000E+00  0.2000E+01  0.2000E+01
    -31.071  0.0000E+00  0.0000E+00  0.2000E+01  0.2000E+01
    -30.787  0.0000E+00  0.0000E+00  0.2000E+01  0.2000E+01
    -30.503  0.0000E+00  0.0000E+00  0.2000E+01  0.2000E+01
    -30.219  0.0000E+00  0.0000E+00  0.2000E+01  0.2000E+01
    -29.935  0.0000E+00  0.0000E+00  0.2000E+01  0.2000E+01
    -29.651  0.0000E+00  0.0000E+00  0.2000E+01  0.2000E+01
    -29.367  0.0000E+00  0.0000E+00  0.2000E+01  0.2000E+01
    -29.083  0.0000E+00  0.0000E+00  0.2000E+01  0.2000E+01
    -28.800  0.0000E+00  0.0000E+00  0.2000E+01  0.2000E+01
    -28.516  0.0000E+00  0.0000E+00  0.2000E+01  0.2000E+01
    -28.232  0.0000E+00  0.0000E+00  0.2000E+01  0.2000E+01
    -27.948  0.0000E+00  0.0000E+00  0.2000E+01  0.2000E+01
    -27.664  0.0000E+00  0.0000E+00  0.2000E+01  0.2000E+01
    -27.380  0.0000E+00  0.0000E+00  0.2000E+01  0.2000E+01
    -27.096  0.0000E+00  0.0000E+00  0.2000E+01  0.2000E+01
    -26.812  0.0000E+00  0.0000E+00  0.2000E+01  0.2000E+01
    -26.528  0.0000E+00  0.0000E+00  0.2000E+01  0.2000E+01
    -26.244  0.0000E+00  0.0000E+00  0.2000E+01  0.2000E+01
    -25.960  0.0000E+00  0.0000E+00  0.2000E+01  0.2000E+01
    -25.676  0.0000E+00  0.0000E+00  0.2000E+01  0.2000E+01
    -25.392  0.0000E+00  0.0000E+00  0.2000E+01  0.2000E+01
    -25.108  0.0000E+00  0.0000E+00  0.2000E+01  0.2000E+01
    -24.824  0.0000E+00  0.0000E+00  0.2000E+01  0.2000E+01
    -24.540  0.1035E-04  0.1034E-04  0.2000E+01  0.2000E+01
    -24.256  0.3096E-02  0.3092E-02  0.2001E+01  0.2001E+01
    -23.972  0.3162E+00  0.3160E+00  0.2091E+01  0.2091E+01
    -23.689  0.1817E+01  0.1816E+01  0.2607E+01  0.2606E+01
    -23.405  0.2703E+01  0.2703E+01  0.3379E+01  0.3379E+01
    -23.121  0.1672E+01  0.1672E+01  0.3870E+01  0.3870E+01
    -22.837  0.2000E+01  0.2000E+01  0.4443E+01  0.4443E+01
    -22.553  0.2673E+01  0.2672E+01  0.5210E+01  0.5209E+01
    -22.269  0.3029E+01  0.3029E+01  0.6081E+01  0.6081E+01
    -21.985  0.3673E+01  0.3673E+01  0.7142E+01  0.7142E+01
    -21.701  0.2845E+01  0.2845E+01  0.7966E+01  0.7966E+01
    -21.417  0.5196E-01  0.5199E-01  0.8000E+01  0.8000E+01
    -21.133  0.0000E+00  0.0000E+00  0.8000E+01  0.8000E+01
    -20.849  0.0000E+00  0.0000E+00  0.8000E+01  0.8000E+01
    -20.565  0.0000E+00  0.0000E+00  0.8000E+01  0.8000E+01
    -20.281  0.0000E+00  0.0000E+00  0.8000E+01  0.8000E+01
    -19.997  0.0000E+00  0.0000E+00  0.8000E+01  0.8000E+01
    -19.713  0.0000E+00  0.0000E+00  0.8000E+01  0.8000E+01
    -19.429  0.0000E+00  0.0000E+00  0.8000E+01  0.8000E+01
    -19.145  0.0000E+00  0.0000E+00  0.8000E+01  0.8000E+01
    -18.861  0.0000E+00  0.0000E+00  0.8000E+01  0.8000E+01
    -18.578  0.0000E+00  0.0000E+00  0.8000E+01  0.8000E+01
    -18.294  0.0000E+00  0.0000E+00  0.8000E+01  0.8000E+01
    -18.010  0.0000E+00  0.0000E+00  0.8000E+01  0.8000E+01
    -17.726  0.0000E+00  0.0000E+00  0.8000E+01  0.8000E+01
    -17.442  0.0000E+00  0.0000E+00  0.8000E+01  0.8000E+01
    -17.158  0.0000E+00  0.0000E+00  0.8000E+01  0.8000E+01
    -16.874  0.0000E+00  0.0000E+00  0.8000E+01  0.8000E+01
    -16.590  0.0000E+00  0.0000E+00  0.8000E+01  0.8000E+01
    -16.306  0.0000E+00  0.0000E+00  0.8000E+01  0.8000E+01
    -16.022  0.0000E+00  0.0000E+00  0.8000E+01  0.8000E+01
    -15.738  0.0000E+00  0.0000E+00  0.8000E+01  0.8000E+01
    -15.454  0.0000E+00  0.0000E+00  0.8000E+01  0.8000E+01
    -15.170  0.0000E+00  0.0000E+00  0.8000E+01  0.8000E+01
    -14.886  0.0000E+00  0.0000E+00  0.8000E+01  0.8000E+01
    -14.602  0.0000E+00  0.0000E+00  0.8000E+01  0.8000E+01
    -14.318  0.0000E+00  0.0000E+00  0.8000E+01  0.8000E+01
    -14.034  0.0000E+00  0.0000E+00  0.8000E+01  0.8000E+01
    -13.750  0.0000E+00  0.0000E+00  0.8000E+01  0.8000E+01
    -13.466  0.0000E+00  0.0000E+00  0.8000E+01  0.8000E+01
    -13.183  0.0000E+00  0.0000E+00  0.8000E+01  0.8000E+01
    -12.899  0.0000E+00  0.0000E+00  0.8000E+01  0.8000E+01
    -12.615  0.0000E+00  0.0000E+00  0.8000E+01  0.8000E+01
    -12.331  0.0000E+00  0.0000E+00  0.8000E+01  0.8000E+01
    -12.047  0.0000E+00  0.0000E+00  0.8000E+01  0.8000E+01
    -11.763  0.0000E+00  0.0000E+00  0.8000E+01  0.8000E+01
    -11.479  0.0000E+00  0.0000E+00  0.8000E+01  0.8000E+01
    -11.195  0.0000E+00  0.0000E+00  0.8000E+01  0.8000E+01
    -10.911  0.0000E+00  0.0000E+00  0.8000E+01  0.8000E+01
    -10.627  0.0000E+00  0.0000E+00  0.8000E+01  0.8000E+01
    -10.343  0.0000E+00  0.0000E+00  0.8000E+01  0.8000E+01
    -10.059  0.0000E+00  0.0000E+00  0.8000E+01  0.8000E+01
     -9.775  0.0000E+00  0.0000E+00  0.8000E+01  0.8000E+01
     -9.491  0.0000E+00  0.0000E+00  0.8000E+01  0.8000E+01
     -9.207  0.0000E+00  0.0000E+00  0.8000E+01  0.8000E+01
     -8.923  0.0000E+00  0.0000E+00  0.8000E+01  0.8000E+01
     -8.639  0.0000E+00  0.0000E+00  0.8000E+01  0.8000E+01
     -8.355  0.0000E+00  0.0000E+00  0.8000E+01  0.8000E+01
     -8.072  0.0000E+00  0.0000E+00  0.8000E+01  0.8000E+01
     -7.788  0.0000E+00  0.0000E+00  0.8000E+01  0.8000E+01
     -7.504  0.0000E+00  0.0000E+00  0.8000E+01  0.8000E+01
     -7.220  0.0000E+00  0.0000E+00  0.8000E+01  0.8000E+01
     -6.936  0.0000E+00  0.0000E+00  0.8000E+01  0.8000E+01
     -6.652  0.0000E+00  0.0000E+00  0.8000E+01  0.8000E+01
     -6.368  0.0000E+00  0.0000E+00  0.8000E+01  0.8000E+01
     -6.084  0.0000E+00  0.0000E+00  0.8000E+01  0.8000E+01
     -5.800  0.0000E+00  0.0000E+00  0.8000E+01  0.8000E+01
     -5.516  0.0000E+00  0.0000E+00  0.8000E+01  0.8000E+01
     -5.232  0.0000E+00  0.0000E+00  0.8000E+01  0.8000E+01
     -4.948  0.0000E+00  0.0000E+00  0.8000E+01  0.8000E+01
     -4.664  0.0000E+00  0.0000E+00  0.8000E+01  0.8000E+01
     -4.380  0.0000E+00  0.0000E+00  0.8000E+01  0.8000E+01
     -4.096  0.0000E+00  0.0000E+00  0.8000E+01  0.8000E+01
     -3.812  0.0000E+00  0.0000E+00  0.8000E+01  0.8000E+01
     -3.528  0.0000E+00  0.0000E+00  0.8000E+01  0.8000E+01
     -3.244  0.0000E+00  0.0000E+00  0.8000E+01  0.8000E+01
     -2.961  0.0000E+00  0.0000E+00  0.8000E+01  0.8000E+01
     -2.677  0.0000E+00  0.0000E+00  0.8000E+01  0.8000E+01
     -2.393  0.0000E+00  0.0000E+00  0.8000E+01  0.8000E+01
     -2.109  0.0000E+00  0.0000E+00  0.8000E+01  0.8000E+01
     -1.825  0.0000E+00  0.0000E+00  0.8000E+01  0.8000E+01
     -1.541  0.0000E+00  0.0000E+00  0.8000E+01  0.8000E+01
     -1.257  0.0000E+00  0.0000E+00  0.8000E+01  0.8000E+01
     -0.973  0.0000E+00  0.0000E+00  0.8000E+01  0.8000E+01
     -0.689  0.0000E+00  0.0000E+00  0.8000E+01  0.8000E+01
     -0.405  0.0000E+00  0.0000E+00  0.8000E+01  0.8000E+01
     -0.121  0.0000E+00  0.0000E+00  0.8000E+01  0.8000E+01
      0.163  0.0000E+00  0.0000E+00  0.8000E+01  0.8000E+01
      0.447  0.0000E+00  0.0000E+00  0.8000E+01  0.8000E+01
      0.731  0.0000E+00  0.0000E+00  0.8000E+01  0.8000E+01
      1.015  0.0000E+00  0.0000E+00  0.8000E+01  0.8000E+01
      1.299  0.0000E+00  0.0000E+00  0.8000E+01  0.8000E+01
      1.583  0.0000E+00  0.0000E+00  0.8000E+01  0.8000E+01
      1.867  0.0000E+00  0.0000E+00  0.8000E+01  0.8000E+01
      2.151  0.0000E+00  0.0000E+00  0.8000E+01  0.8000E+01
      2.434  0.0000E+00  0.0000E+00  0.8000E+01  0.8000E+01
      2.718  0.0000E+00  0.0000E+00  0.8000E+01  0.8000E+01
      3.002  0.0000E+00  0.0000E+00  0.8000E+01  0.8000E+01
      3.286  0.0000E+00  0.0000E+00  0.8000E+01  0.8000E+01
      3.570  0.0000E+00  0.0000E+00  0.8000E+01  0.8000E+01
      3.854  0.0000E+00  0.0000E+00  0.8000E+01  0.8000E+01
      4.138  0.0000E+00  0.0000E+00  0.8000E+01  0.8000E+01
      4.422  0.0000E+00  0.0000E+00  0.8000E+01  0.8000E+01
      4.706  0.0000E+00  0.0000E+00  0.8000E+01  0.8000E+01
      4.990  0.0000E+00  0.0000E+00  0.8000E+01  0.8000E+01
      5.274  0.0000E+00  0.0000E+00  0.8000E+01  0.8000E+01
      5.558  0.0000E+00  0.0000E+00  0.8000E+01  0.8000E+01
      5.842  0.0000E+00  0.0000E+00  0.8000E+01  0.8000E+01
      6.126  0.0000E+00  0.0000E+00  0.8000E+01  0.8000E+01
      6.410  0.0000E+00  0.0000E+00  0.8000E+01  0.8000E+01
      6.694  0.6194E-08  0.6453E-08  0.8000E+01  0.8000E+01
      6.978  0.2246E-05  0.2340E-05  0.8000E+01  0.8000E+01
      7.262  0.5244E-03  0.5420E-03  0.8000E+01  0.8000E+01
      7.545  0.1119E-01  0.1133E-01  0.8003E+01  0.8003E+01
      7.829  0.2763E-01  0.2764E-01  0.8011E+01  0.8011E+01
      8.113  0.3701E-01  0.3736E-01  0.8022E+01  0.8022E+01
      8.397  0.5268E-01  0.5234E-01  0.8037E+01  0.8037E+01
      8.681  0.4869E-01  0.4924E-01  0.8051E+01  0.8051E+01
      8.965  0.8268E-01  0.8259E-01  0.8075E+01  0.8075E+01
      9.249  0.8856E-01  0.8898E-01  0.8100E+01  0.8101E+01
      9.533  0.8659E-01  0.8652E-01  0.8126E+01  0.8126E+01
      9.817  0.2787E+00  0.2794E+00  0.8205E+01  0.8206E+01
     10.101  0.5352E+00  0.5362E+00  0.8358E+01  0.8359E+01
     10.385  0.7659E+00  0.7665E+00  0.8579E+01  0.8580E+01
     10.669  0.1078E+01  0.1075E+01  0.8889E+01  0.8890E+01
     10.953  0.1065E+01  0.1065E+01  0.9199E+01  0.9200E+01
     11.237  0.1124E+01  0.1125E+01  0.9526E+01  0.9527E+01
     11.521  0.1121E+01  0.1121E+01  0.9848E+01  0.9849E+01
     11.805  0.9050E+00  0.9036E+00  0.1011E+02  0.1011E+02
     12.089  0.4216E+00  0.4217E+00  0.1024E+02  0.1024E+02
     12.373  0.1132E+01  0.1132E+01  0.1056E+02  0.1056E+02
     12.657  0.1729E+01  0.1729E+01  0.1106E+02  0.1106E+02
     12.940  0.1205E+01  0.1205E+01  0.1141E+02  0.1141E+02
     13.224  0.1047E+01  0.1047E+01  0.1171E+02  0.1171E+02
     13.508  0.7373E+00  0.7384E+00  0.1193E+02  0.1193E+02
     13.792  0.1201E+01  0.1201E+01  0.1227E+02  0.1227E+02
     14.076  0.1580E+01  0.1581E+01  0.1273E+02  0.1273E+02
     14.360  0.1331E+01  0.1330E+01  0.1311E+02  0.1311E+02
     14.644  0.8895E+00  0.8898E+00  0.1337E+02  0.1337E+02
     14.928  0.5214E+00  0.5213E+00  0.1352E+02  0.1352E+02
     15.212  0.5182E+00  0.5178E+00  0.1367E+02  0.1367E+02
     15.496  0.3447E+00  0.3443E+00  0.1377E+02  0.1377E+02
     15.780  0.4600E+00  0.4601E+00  0.1390E+02  0.1390E+02
     16.064  0.5499E+00  0.5501E+00  0.1406E+02  0.1406E+02
     16.348  0.6595E+00  0.6584E+00  0.1425E+02  0.1425E+02
     16.632  0.9276E+00  0.9276E+00  0.1452E+02  0.1452E+02
     16.916  0.1074E+01  0.1073E+01  0.1483E+02  0.1483E+02
     17.200  0.1281E+01  0.1280E+01  0.1520E+02  0.1520E+02
     17.484  0.1327E+01  0.1326E+01  0.1558E+02  0.1558E+02
     17.768  0.1636E+01  0.1634E+01  0.1605E+02  0.1605E+02
     18.051  0.1575E+01  0.1574E+01  0.1651E+02  0.1651E+02
     18.335  0.2043E+01  0.2042E+01  0.1710E+02  0.1709E+02
     18.619  0.1519E+01  0.1522E+01  0.1754E+02  0.1754E+02
     18.903  0.9911E+00  0.9919E+00  0.1783E+02  0.1783E+02
     19.187  0.7449E+00  0.7451E+00  0.1805E+02  0.1805E+02
     19.471  0.8243E+00  0.8240E+00  0.1829E+02  0.1829E+02
     19.755  0.6926E+00  0.6929E+00  0.1849E+02  0.1849E+02
     20.039  0.3984E+00  0.3987E+00  0.1860E+02  0.1860E+02
     20.323  0.3174E+00  0.3174E+00  0.1870E+02  0.1870E+02
     20.607  0.3510E+00  0.3510E+00  0.1880E+02  0.1880E+02
     20.891  0.1592E+00  0.1594E+00  0.1885E+02  0.1885E+02
     21.175  0.3600E+00  0.3605E+00  0.1895E+02  0.1895E+02
     21.459  0.1676E+00  0.1672E+00  0.1900E+02  0.1900E+02
     21.743  0.1513E+00  0.1515E+00  0.1904E+02  0.1904E+02
     22.027  0.2669E+00  0.2672E+00  0.1912E+02  0.1912E+02
     22.311  0.3573E+00  0.3573E+00  0.1922E+02  0.1922E+02
     22.595  0.1979E+00  0.1979E+00  0.1928E+02  0.1928E+02
     22.879  0.1371E+00  0.1370E+00  0.1933E+02  0.1933E+02
     23.162  0.1595E+00  0.1602E+00  0.1937E+02  0.1937E+02
     23.446  0.2710E+00  0.2710E+00  0.1945E+02  0.1945E+02
     23.730  0.2382E+00  0.2381E+00  0.1952E+02  0.1952E+02
     24.014  0.1878E+00  0.1879E+00  0.1958E+02  0.1958E+02
     24.298  0.1596E+00  0.1596E+00  0.1962E+02  0.1962E+02
     24.582  0.1407E+00  0.1413E+00  0.1966E+02  0.1966E+02
     24.866  0.1872E+00  0.1874E+00  0.1972E+02  0.1972E+02
     25.150  0.2129E+00  0.2123E+00  0.1978E+02  0.1978E+02
     25.434  0.6576E-01  0.6581E-01  0.1980E+02  0.1980E+02
     25.718  0.1653E+00  0.1657E+00  0.1984E+02  0.1985E+02
     26.002  0.1524E+00  0.1520E+00  0.1989E+02  0.1989E+02
     26.286  0.4053E-01  0.4080E-01  0.1990E+02  0.1990E+02
     26.570  0.1263E+00  0.1261E+00  0.1994E+02  0.1994E+02
     26.854  0.5517E-01  0.5524E-01  0.1995E+02  0.1995E+02
     27.138  0.7512E-01  0.7503E-01  0.1997E+02  0.1997E+02
     27.422  0.9955E-02  0.9863E-02  0.1998E+02  0.1998E+02
     27.706  0.3214E-01  0.3213E-01  0.1999E+02  0.1999E+02
     27.990  0.2703E-01  0.2713E-01  0.1999E+02  0.1999E+02
     28.274  0.1843E-01  0.1831E-01  0.2000E+02  0.2000E+02
     28.557  0.0000E+00  0.0000E+00  0.2000E+02  0.2000E+02
     28.841  0.0000E+00  0.0000E+00  0.2000E+02  0.2000E+02
     29.125  0.0000E+00  0.0000E+00  0.2000E+02  0.2000E+02
     29.409  0.0000E+00  0.0000E+00  0.2000E+02  0.2000E+02
     29.693  0.0000E+00  0.0000E+00  0.2000E+02  0.2000E+02
     29.977  0.0000E+00  0.0000E+00  0.2000E+02  0.2000E+02
     30.261  0.0000E+00  0.0000E+00  0.2000E+02  0.2000E+02
     30.545  0.0000E+00  0.0000E+00  0.2000E+02  0.2000E+02
     30.829  0.0000E+00  0.0000E+00  0.2000E+02  0.2000E+02
     31.113  0.0000E+00  0.0000E+00  0.2000E+02  0.2000E+02
     31.397  0.0000E+00  0.0000E+00  0.2000E+02  0.2000E+02
     31.681  0.0000E+00  0.0000E+00  0.2000E+02  0.2000E+02
     31.965  0.0000E+00  0.0000E+00  0.2000E+02  0.2000E+02
     31.96479167    -53.21884676  301     14.26864002      1.00000000
    -53.219  0.0000E+00  0.0000E+00  0.0000E+00  0.0000E+00  0.0000E+00  0.0000E+00  0.0000E+00  0.0000E+00  0.0000E+00  0.0000E+00  0.0000E+00  0.0000E+00  0.0000E+00  0.0000E+00  0.0000E+00  0.0000E+00  0.0000E+00  0.0000E+00
    -52.935  0.0000E+00  0.0000E+00  0.0000E+00  0.0000E+00  0.0000E+00  0.0000E+00  0.0000E+00  0.0000E+00  0.0000E+00  0.0000E+00  0.0000E+00  0.0000E+00  0.0000E+00  0.0000E+00  0.0000E+00  0.0000E+00  0.0000E+00  0.0000E+00
    -52.651  0.0000E+00  0.0000E+00  0.0000E+00  0.0000E+00  0.0000E+00  0.0000E+00  0.0000E+00  0.0000E+00  0.0000E+00  0.0000E+00  0.0000E+00  0.0000E+00  0.0000E+00  0.0000E+00  0.0000E+00  0.0000E+00  0.0000E+00  0.0000E+00
    -52.367  0.0000E+00  0.0000E+00  0.0000E+00  0.0000E+00  0.0000E+00  0.0000E+00  0.0000E+00  0.0000E+00  0.0000E+00  0.0000E+00  0.0000E+00  0.0000E+00  0.0000E+00  0.0000E+00  0.0000E+00  0.0000E+00  0.0000E+00  0.0000E+00
    -52.083  0.0000E+00  0.0000E+00  0.0000E+00  0.0000E+00  0.0000E+00  0.0000E+00  0.0000E+00  0.0000E+00  0.0000E+00  0.0000E+00  0.0000E+00  0.0000E+00  0.0000E+00  0.0000E+00  0.0000E+00  0.0000E+00  0.0000E+00  0.0000E+00
    -51.799  0.0000E+00  0.0000E+00  0.0000E+00  0.0000E+00  0.0000E+00  0.0000E+00  0.0000E+00  0.0000E+00  0.0000E+00  0.0000E+00  0.0000E+00  0.0000E+00  0.0000E+00  0.0000E+00  0.0000E+00  0.0000E+00  0.0000E+00  0.0000E+00
    -51.515  0.0000E+00  0.0000E+00  0.0000E+00  0.0000E+00  0.0000E+00  0.0000E+00  0.0000E+00  0.0000E+00  0.0000E+00  0.0000E+00  0.0000E+00  0.0000E+00  0.0000E+00  0.0000E+00  0.0000E+00  0.0000E+00  0.0000E+00  0.0000E+00
    -51.231  0.0000E+00  0.0000E+00  0.0000E+00  0.0000E+00  0.0000E+00  0.0000E+00  0.0000E+00  0.0000E+00  0.0000E+00  0.0000E+00  0.0000E+00  0.0000E+00  0.0000E+00  0.0000E+00  0.0000E+00  0.0000E+00  0.0000E+00  0.0000E+00
    -50.947  0.0000E+00  0.0000E+00  0.0000E+00  0.0000E+00  0.0000E+00  0.0000E+00  0.0000E+00  0.0000E+00  0.0000E+00  0.0000E+00  0.0000E+00  0.0000E+00  0.0000E+00  0.0000E+00  0.0000E+00  0.0000E+00  0.0000E+00  0.0000E+00
    -50.663  0.0000E+00  0.0000E+00  0.0000E+00  0.0000E+00  0.0000E+00  0.0000E+00  0.0000E+00  0.0000E+00  0.0000E+00  0.0000E+00  0.0000E+00  0.0000E+00  0.0000E+00  0.0000E+00  0.0000E+00  0.0000E+00  0.0000E+00  0.0000E+00
    -50.379  0.0000E+00  0.0000E+00  0.0000E+00  0.0000E+00  0.0000E+00  0.0000E+00  0.0000E+00  0.0000E+00  0.0000E+00  0.0000E+00  0.0000E+00  0.0000E+00  0.0000E+00  0.0000E+00  0.0000E+00  0.0000E+00  0.0000E+00  0.0000E+00
    -50.095  0.0000E+00  0.0000E+00  0.0000E+00  0.0000E+00  0.0000E+00  0.0000E+00  0.0000E+00  0.0000E+00  0.0000E+00  0.0000E+00  0.0000E+00  0.0000E+00  0.0000E+00  0.0000E+00  0.0000E+00  0.0000E+00  0.0000E+00  0.0000E+00
    -49.812  0.1925E-05  0.1949E-05  0.1477E-09  0.1495E-09  0.1477E-09  0.1495E-09  0.1477E-09  0.1495E-09  0.1033E-10  0.1047E-10  0.1033E-10  0.1047E-10  0.1153E-11  0.1169E-11  0.1033E-10  0.1047E-10  0.1153E-11  0.1169E-11
    -49.528  0.5830E-03  0.5903E-03  0.4843E-07  0.4904E-07  0.4843E-07  0.4904E-07  0.4843E-07  0.4904E-07  0.4468E-08  0.4525E-08  0.4468E-08  0.4525E-08  0.4597E-09  0.4661E-09  0.4468E-08  0.4525E-08  0.4597E-09  0.4661E-09
    -49.244  0.6712E-01  0.6757E-01  0.7772E-05  0.7838E-05  0.7772E-05  0.7838E-05  0.7772E-05  0.7838E-05  0.9663E-06  0.9760E-06  0.9663E-06  0.9760E-06  0.9662E-07  0.9770E-07  0.9663E-06  0.9760E-06  0.9662E-07  0.9770E-07
    -48.960  0.4278E+00  0.4289E+00  0.8475E-04  0.8502E-04  0.8475E-04  0.8502E-04  0.8475E-04  0.8502E-04  0.3005E-04  0.3020E-04  0.3005E-04  0.3020E-04  0.2523E-05  0.2535E-05  0.3005E-04  0.3020E-04  0.2523E-05  0.2535E-05
    -48.676  0.1461E+01  0.1465E+01  0.1876E-03  0.1877E-03  0.1876E-03  0.1877E-03  0.1876E-03  0.1877E-03  0.2662E-03  0.2669E-03  0.2662E-03  0.2669E-03  0.1556E-04  0.1560E-04  0.2662E-03  0.2669E-03  0.1556E-04  0.1560E-04
    -48.392  0.1370E+01  0.1366E+01  0.1142E-03  0.1138E-03  0.1142E-03  0.1138E-03  0.1142E-03  0.1138E-03  0.2161E-03  0.2150E-03  0.2161E-03  0.2150E-03  0.1137E-04  0.1134E-04  0.2161E-03  0.2150E-03  0.1137E-04  0.1134E-04
    -48.108  0.1348E+00  0.1340E+00  0.1028E-04  0.1019E-04  0.1028E-04  0.1019E-04  0.1028E-04  0.1019E-04  0.3558E-05  0.3523E-05  0.3558E-05  0.3523E-05  0.3323E-06  0.3295E-06  0.3558E-05  0.3523E-05  0.3323E-06  0.3295E-06
    -47.824  0.0000E+00  0.0000E+00  0.0000E+00  0.0000E+00  0.0000E+00  0.0000E+00  0.0000E+00  0.0000E+00  0.0000E+00  0.0000E+00  0.0000E+00  0.0000E+00  0.0000E+00  0.0000E+00  0.0000E+00  0.0000E+00  0.0000E+00  0.0000E+00
    -47.540  0.0000E+00  0.0000E+00  0.0000E+00  0.0000E+00  0.0000E+00  0.0000E+00  0.0000E+00  0.0000E+00  0.0000E+00  0.0000E+00  0.0000E+00  0.0000E+00  0.0000E+00  0.0000E+00  0.0000E+00  0.0000E+00  0.0000E+00  0.0000E+00
    -47.256  0.0000E+00  0.0000E+00  0.0000E+00  0.0000E+00  0.0000E+00  0.0000E+00  0.0000E+00  0.0000E+00  0.0000E+00  0.0000E+00  0.0000E+00  0.0000E+00  0.0000E+00  0.0000E+00  0.0000E+00  0.0000E+00  0.0000E+00  0.0000E+00
    -46.972  0.0000E+00  0.0000E+00  0.0000E+00  0.0000E+00  0.0000E+00  0.0000E+00  0.0000E+00  0.0000E+00  0.0000E+00  0.0000E+00  0.0000E+00  0.0000E+00  0.0000E+00  0.0000E+00  0.0000E+00  0.0000E+00  0.0000E+00  0.0000E+00
    -46.688  0.0000E+00  0.0000E+00  0.0000E+00  0.0000E+00  0.0000E+00  0.0000E+00  0.0000E+00  0.0000E+00  0.0000E+00  0.0000E+00  0.0000E+00  0.0000E+00  0.0000E+00  0.0000E+00  0.0000E+00  0.0000E+00  0.0000E+00  0.0000E+00
    -46.404  0.0000E+00  0.0000E+00  0.0000E+00  0.0000E+00  0.0000E+00  0.0000E+00  0.0000E+00  0.0000E+00  0.0000E+00  0.0000E+00  0.0000E+00  0.0000E+00  0.0000E+00  0.0000E+00  0.0000E+00  0.0000E+00  0.0000E+00  0.0000E+00
    -46.120  0.0000E+00  0.0000E+00  0.0000E+00  0.0000E+00  0.0000E+00  0.0000E+00  0.0000E+00  0.0000E+00  0.0000E+00  0.0000E+00  0.0000E+00  0.0000E+00  0.0000E+00  0.0000E+00  0.0000E+00  0.0000E+00  0.0000E+00  0.0000E+00
    -45.836  0.0000E+00  0.0000E+00  0.0000E+00  0.0000E+00  0.0000E+00  0.0000E+00  0.0000E+00  0.0000E+00  0.0000E+00  0.0000E+00  0.0000E+00  0.0000E+00  0.0000E+00  0.0000E+00  0.0000E+00  0.0000E+00  0.0000E+00  0.0000E+00
    -45.552  0.0000E+00  0.0000E+00  0.0000E+00  0.0000E+00  0.0000E+00  0.0000E+00  0.0000E+00  0.0000E+00  0.0000E+00  0.0000E+00  0.0000E+00  0.0000E+00  0.0000E+00  0.0000E+00  0.0000E+00  0.0000E+00  0.0000E+00  0.0000E+00
    -45.268  0.0000E+00  0.0000E+00  0.0000E+00  0.0000E+00  0.0000E+00  0.0000E+00  0.0000E+00  0.0000E+00  0.0000E+00  0.0000E+00  0.0000E+00  0.0000E+00  0.0000E+00  0.0000E+00  0.0000E+00  0.0000E+00  0.0000E+00  0.0000E+00
    -44.984  0.0000E+00  0.0000E+00  0.0000E+00  0.0000E+00  0.0000E+00  0.0000E+00  0.0000E+00  0.0000E+00  0.0000E+00  0.0000E+00  0.0000E+00  0.0000E+00  0.0000E+00  0.0000E+00  0.0000E+00  0.0000E+00  0.0000E+00  0.0000E+00
    -44.700  0.0000E+00  0.0000E+00  0.0000E+00  0.0000E+00  0.0000E+00  0.0000E+00  0.0000E+00  0.0000E+00  0.0000E+00  0.0000E+00  0.0000E+00  0.0000E+00  0.0000E+00  0.0000E+00  0.0000E+00  0.0000E+00  0.0000E+00  0.0000E+00
    -44.417  0.0000E+00  0.0000E+00  0.0000E+00  0.0000E+00  0.0000E+00  0.0000E+00  0.0000E+00  0.0000E+00  0.0000E+00  0.0000E+00  0.0000E+00  0.0000E+00  0.0000E+00  0.0000E+00  0.0000E+00  0.0000E+00  0.0000E+00  0.0000E+00
    -44.133  0.0000E+00  0.0000E+00  0.0000E+00  0.0000E+00  0.0000E+00  0.0000E+00  0.0000E+00  0.0000E+00  0.0000E+00  0.0000E+00  0.0000E+00  0.0000E+00  0.0000E+00  0.0000E+00  0.0000E+00  0.0000E+00  0.0000E+00  0.0000E+00
    -43.849  0.0000E+00  0.0000E+00  0.0000E+00  0.0000E+00  0.0000E+00  0.0000E+00  0.0000E+00  0.0000E+00  0.0000E+00  0.0000E+00  0.0000E+00  0.0000E+00  0.0000E+00  0.0000E+00  0.0000E+00  0.0000E+00  0.0000E+00  0.0000E+00
    -43.565  0.0000E+00  0.0000E+00  0.0000E+00  0.0000E+00  0.0000E+00  0.0000E+00  0.0000E+00  0.0000E+00  0.0000E+00  0.0000E+00  0.0000E+00  0.0000E+00  0.0000E+00  0.0000E+00  0.0000E+00  0.0000E+00  0.0000E+00  0.0000E+00
    -43.281  0.0000E+00  0.0000E+00  0.0000E+00  0.0000E+00  0.0000E+00  0.0000E+00  0.0000E+00  0.0000E+00  0.0000E+00  0.0000E+00  0.0000E+00  0.0000E+00  0.0000E+00  0.0000E+00  0.0000E+00  0.0000E+00  0.0000E+00  0.0000E+00
    -42.997  0.0000E+00  0.0000E+00  0.0000E+00  0.0000E+00  0.0000E+00  0.0000E+00  0.0000E+00  0.0000E+00  0.0000E+00  0.0000E+00  0.0000E+00  0.0000E+00  0.0000E+00  0.0000E+00  0.0000E+00  0.0000E+00  0.0000E+00  0.0000E+00
    -42.713  0.0000E+00  0.0000E+00  0.0000E+00  0.0000E+00  0.0000E+00  0.0000E+00  0.0000E+00  0.0000E+00  0.0000E+00  0.0000E+00  0.0000E+00  0.0000E+00  0.0000E+00  0.0000E+00  0.0000E+00  0.0000E+00  0.0000E+00  0.0000E+00
    -42.429  0.0000E+00  0.0000E+00  0.0000E+00  0.0000E+00  0.0000E+00  0.0000E+00  0.0000E+00  0.0000E+00  0.0000E+00  0.0000E+00  0.0000E+00  0.0000E+00  0.0000E+00  0.0000E+00  0.0000E+00  0.0000E+00  0.0000E+00  0.0000E+00
    -42.145  0.0000E+00  0.0000E+00  0.0000E+00  0.0000E+00  0.0000E+00  0.0000E+00  0.0000E+00  0.0000E+00  0.0000E+00  0.0000E+00  0.0000E+00  0.0000E+00  0.0000E+00  0.0000E+00  0.0000E+00  0.0000E+00  0.0000E+00  0.0000E+00
    -41.861  0.0000E+00  0.0000E+00  0.0000E+00  0.0000E+00  0.0000E+00  0.0000E+00  0.0000E+00  0.0000E+00  0.0000E+00  0.0000E+00  0.0000E+00  0.0000E+00  0.0000E+00  0.0000E+00  0.0000E+00  0.0000E+00  0.0000E+00  0.0000E+00
    -41.577  0.0000E+00  0.0000E+00  0.0000E+00  0.0000E+00  0.0000E+00  0.0000E+00  0.0000E+00  0.0000E+00  0.0000E+00  0.0000E+00  0.0000E+00  0.0000E+00  0.0000E+00  0.0000E+00  0.0000E+00  0.0000E+00  0.0000E+00  0.0000E+00
    -41.293  0.0000E+00  0.0000E+00  0.0000E+00  0.0000E+00  0.0000E+00  0.0000E+00  0.0000E+00  0.0000E+00  0.0000E+00  0.0000E+00  0.0000E+00  0.0000E+00  0.0000E+00  0.0000E+00  0.0000E+00  0.0000E+00  0.0000E+00  0.0000E+00
    -41.009  0.0000E+00  0.0000E+00  0.0000E+00  0.0000E+00  0.0000E+00  0.0000E+00  0.0000E+00  0.0000E+00  0.0000E+00  0.0000E+00  0.0000E+00  0.0000E+00  0.0000E+00  0.0000E+00  0.0000E+00  0.0000E+00  0.0000E+00  0.0000E+00
    -40.725  0.0000E+00  0.0000E+00  0.0000E+00  0.0000E+00  0.0000E+00  0.0000E+00  0.0000E+00  0.0000E+00  0.0000E+00  0.0000E+00  0.0000E+00  0.0000E+00  0.0000E+00  0.0000E+00  0.0000E+00  0.0000E+00  0.0000E+00  0.0000E+00
    -40.441  0.0000E+00  0.0000E+00  0.0000E+00  0.0000E+00  0.0000E+00  0.0000E+00  0.0000E+00  0.0000E+00  0.0000E+00  0.0000E+00  0.0000E+00  0.0000E+00  0.0000E+00  0.0000E+00  0.0000E+00  0.0000E+00  0.0000E+00  0.0000E+00
    -40.157  0.0000E+00  0.0000E+00  0.0000E+00  0.0000E+00  0.0000E+00  0.0000E+00  0.0000E+00  0.0000E+00  0.0000E+00  0.0000E+00  0.0000E+00  0.0000E+00  0.0000E+00  0.0000E+00  0.0000E+00  0.0000E+00  0.0000E+00  0.0000E+00
    -39.873  0.0000E+00  0.0000E+00  0.0000E+00  0.0000E+00  0.0000E+00  0.0000E+00  0.0000E+00  0.0000E+00  0.0000E+00  0.0000E+00  0.0000E+00  0.0000E+00  0.0000E+00  0.0000E+00  0.0000E+00  0.0000E+00  0.0000E+00  0.0000E+00
    -39.589  0.0000E+00  0.0000E+00  0.0000E+00  0.0000E+00  0.0000E+00  0.0000E+00  0.0000E+00  0.0000E+00  0.0000E+00  0.0000E+00  0.0000E+00  0.0000E+00  0.0000E+00  0.0000E+00  0.0000E+00  0.0000E+00  0.0000E+00  0.0000E+00
    -39.306  0.0000E+00  0.0000E+00  0.0000E+00  0.0000E+00  0.0000E+00  0.0000E+00  0.0000E+00  0.0000E+00  0.0000E+00  0.0000E+00  0.0000E+00  0.0000E+00  0.0000E+00  0.0000E+00  0.0000E+00  0.0000E+00  0.0000E+00  0.0000E+00
    -39.022  0.0000E+00  0.0000E+00  0.0000E+00  0.0000E+00  0.0000E+00  0.0000E+00  0.0000E+00  0.0000E+00  0.0000E+00  0.0000E+00  0.0000E+00  0.0000E+00  0.0000E+00  0.0000E+00  0.0000E+00  0.0000E+00  0.0000E+00  0.0000E+00