   2   2   1   0
  0.1558773E+02  0.3147297E-09  0.3147297E-09  0.3147297E-09  0.5000000E-15
  1.000000000000000E-004
  CAR 
 unknown system                          
     20.58446370    -59.56471628  301      8.00107523      1.00000000
    -59.565  0.0000E+00  0.0000E+00  0.0000E+00  0.0000E+00
    -59.298  0.0000E+00  0.0000E+00  0.0000E+00  0.0000E+00
    -59.030  0.0000E+00  0.0000E+00  0.0000E+00  0.0000E+00
    -58.763  0.0000E+00  0.0000E+00  0.0000E+00  0.0000E+00
    -58.496  0.0000E+00  0.0000E+00  0.0000E+00  0.0000E+00
    -58.229  0.0000E+00  0.0000E+00  0.0000E+00  0.0000E+00
    -57.962  0.0000E+00  0.0000E+00  0.0000E+00  0.0000E+00
    -57.695  0.0000E+00  0.0000E+00  0.0000E+00  0.0000E+00
    -57.427  0.0000E+00  0.0000E+00  0.0000E+00  0.0000E+00
    -57.160  0.0000E+00  0.0000E+00  0.0000E+00  0.0000E+00
    -56.893  0.0000E+00  0.0000E+00  0.0000E+00  0.0000E+00
    -56.626  0.0000E+00  0.0000E+00  0.0000E+00  0.0000E+00
    -56.359  0.1874E-03  0.1505E-03  0.5008E-04  0.4021E-04
    -56.092  0.3867E-01  0.3110E-01  0.1038E-01  0.8350E-02
    -55.824  0.3415E+01  0.3056E+01  0.9228E+00  0.8247E+00
    -55.557  0.3981E+01  0.4336E+01  0.1986E+01  0.1983E+01
    -55.290  0.0000E+00  0.0000E+00  0.2000E+01  0.2000E+01
    -55.023  0.0000E+00  0.0000E+00  0.2000E+01  0.2000E+01
    -54.756  0.0000E+00  0.0000E+00  0.2000E+01  0.2000E+01
    -54.489  0.0000E+00  0.0000E+00  0.2000E+01  0.2000E+01
    -54.221  0.0000E+00  0.0000E+00  0.2000E+01  0.2000E+01
    -53.954  0.0000E+00  0.0000E+00  0.2000E+01  0.2000E+01
    -53.687  0.0000E+00  0.0000E+00  0.2000E+01  0.2000E+01
    -53.420  0.0000E+00  0.0000E+00  0.2000E+01  0.2000E+01
    -53.153  0.0000E+00  0.0000E+00  0.2000E+01  0.2000E+01
    -52.886  0.0000E+00  0.0000E+00  0.2000E+01  0.2000E+01
    -52.618  0.0000E+00  0.0000E+00  0.2000E+01  0.2000E+01
    -52.351  0.0000E+00  0.0000E+00  0.2000E+01  0.2000E+01
    -52.084  0.0000E+00  0.0000E+00  0.2000E+01  0.2000E+01
    -51.817  0.0000E+00  0.0000E+00  0.2000E+01  0.2000E+01
    -51.550  0.0000E+00  0.0000E+00  0.2000E+01  0.2000E+01
    -51.283  0.0000E+00  0.0000E+00  0.2000E+01  0.2000E+01
    -51.015  0.0000E+00  0.0000E+00  0.2000E+01  0.2000E+01
    -50.748  0.0000E+00  0.0000E+00  0.2000E+01  0.2000E+01
    -50.481  0.0000E+00  0.0000E+00  0.2000E+01  0.2000E+01
    -50.214  0.0000E+00  0.0000E+00  0.2000E+01  0.2000E+01
    -49.947  0.0000E+00  0.0000E+00  0.2000E+01  0.2000E+01
    -49.680  0.0000E+00  0.0000E+00  0.2000E+01  0.2000E+01
    -49.412  0.0000E+00  0.0000E+00  0.2000E+01  0.2000E+01
    -49.145  0.0000E+00  0.0000E+00  0.2000E+01  0.2000E+01
    -48.878  0.0000E+00  0.0000E+00  0.2000E+01  0.2000E+01
    -48.611  0.0000E+00  0.0000E+00  0.2000E+01  0.2000E+01
    -48.344  0.0000E+00  0.0000E+00  0.2000E+01  0.2000E+01
    -48.077  0.0000E+00  0.0000E+00  0.2000E+01  0.2000E+01
    -47.810  0.0000E+00  0.0000E+00  0.2000E+01  0.2000E+01
    -47.542  0.0000E+00  0.0000E+00  0.2000E+01  0.2000E+01
    -47.275  0.0000E+00  0.0000E+00  0.2000E+01  0.2000E+01
    -47.008  0.0000E+00  0.0000E+00  0.2000E+01  0.2000E+01
    -46.741  0.0000E+00  0.0000E+00  0.2000E+01  0.2000E+01
    -46.474  0.0000E+00  0.0000E+00  0.2000E+01  0.2000E+01
    -46.207  0.0000E+00  0.0000E+00  0.2000E+01  0.2000E+01
    -45.939  0.0000E+00  0.0000E+00  0.2000E+01  0.2000E+01
    -45.672  0.0000E+00  0.0000E+00  0.2000E+01  0.2000E+01
    -45.405  0.0000E+00  0.0000E+00  0.2000E+01  0.2000E+01
    -45.138  0.0000E+00  0.0000E+00  0.2000E+01  0.2000E+01
    -44.871  0.0000E+00  0.0000E+00  0.2000E+01  0.2000E+01
    -44.604  0.0000E+00  0.0000E+00  0.2000E+01  0.2000E+01
    -44.336  0.0000E+00  0.0000E+00  0.2000E+01  0.2000E+01
    -44.069  0.0000E+00  0.0000E+00  0.2000E+01  0.2000E+01
    -43.802  0.0000E+00  0.0000E+00  0.2000E+01  0.2000E+01
    -43.535  0.0000E+00  0.0000E+00  0.2000E+01  0.2000E+01
    -43.268  0.0000E+00  0.0000E+00  0.2000E+01  0.2000E+01
    -43.001  0.0000E+00  0.0000E+00  0.2000E+01  0.2000E+01
    -42.733  0.0000E+00  0.0000E+00  0.2000E+01  0.2000E+01
    -42.466  0.0000E+00  0.0000E+00  0.2000E+01  0.2000E+01
    -42.199  0.0000E+00  0.0000E+00  0.2000E+01  0.2000E+01
    -41.932  0.0000E+00  0.0000E+00  0.2000E+01  0.2000E+01
    -41.665  0.0000E+00  0.0000E+00  0.2000E+01  0.2000E+01
    -41.398  0.0000E+00  0.0000E+00  0.2000E+01  0.2000E+01
    -41.130  0.0000E+00  0.0000E+00  0.2000E+01  0.2000E+01
    -40.863  0.0000E+00  0.0000E+00  0.2000E+01  0.2000E+01
    -40.596  0.0000E+00  0.0000E+00  0.2000E+01  0.2000E+01
    -40.329  0.0000E+00  0.0000E+00  0.2000E+01  0.2000E+01
    -40.062  0.0000E+00  0.0000E+00  0.2000E+01  0.2000E+01
    -39.795  0.0000E+00  0.0000E+00  0.2000E+01  0.2000E+01
    -39.527  0.0000E+00  0.0000E+00  0.2000E+01  0.2000E+01
    -39.260  0.0000E+00  0.0000E+00  0.2000E+01  0.2000E+01
    -38.993  0.0000E+00  0.0000E+00  0.2000E+01  0.2000E+01
    -38.726  0.0000E+00  0.0000E+00  0.2000E+01  0.2000E+01
    -38.459  0.0000E+00  0.0000E+00  0.2000E+01  0.2000E+01
    -38.192  0.0000E+00  0.0000E+00  0.2000E+01  0.2000E+01
    -37.924  0.0000E+00  0.0000E+00  0.2000E+01  0.2000E+01
    -37.657  0.0000E+00  0.0000E+00  0.2000E+01  0.2000E+01
    -37.390  0.0000E+00  0.0000E+00  0.2000E+01  0.2000E+01
    -37.123  0.0000E+00  0.0000E+00  0.2000E+01  0.2000E+01
    -36.856  0.0000E+00  0.0000E+00  0.2000E+01  0.2000E+01
    -36.589  0.0000E+00  0.0000E+00  0.2000E+01  0.2000E+01
    -36.321  0.0000E+00  0.0000E+00  0.2000E+01  0.2000E+01
    -36.054  0.0000E+00  0.0000E+00  0.2000E+01  0.2000E+01
    -35.787  0.0000E+00  0.0000E+00  0.2000E+01  0.2000E+01
    -35.520  0.0000E+00  0.0000E+00  0.2000E+01  0.2000E+01
    -35.253  0.0000E+00  0.0000E+00  0.2000E+01  0.2000E+01
    -34.986  0.0000E+00  0.0000E+00  0.2000E+01  0.2000E+01
    -34.718  0.0000E+00  0.0000E+00  0.2000E+01  0.2000E+01
    -34.451  0.0000E+00  0.0000E+00  0.2000E+01  0.2000E+01
    -34.184  0.0000E+00  0.0000E+00  0.2000E+01  0.2000E+01
    -33.917  0.0000E+00  0.0000E+00  0.2000E+01  0.2000E+01
    -33.650  0.0000E+00  0.0000E+00  0.2000E+01  0.2000E+01
    -33.383  0.0000E+00  0.0000E+00  0.2000E+01  0.2000E+01
    -33.115  0.0000E+00  0.0000E+00  0.2000E+01  0.2000E+01
    -32.848  0.0000E+00  0.0000E+00  0.2000E+01  0.2000E+01
    -32.581  0.0000E+00  0.0000E+00  0.2000E+01  0.2000E+01
    -32.314  0.0000E+00  0.0000E+00  0.2000E+01  0.2000E+01
    -32.047  0.0000E+00  0.0000E+00  0.2000E+01  0.2000E+01
    -31.780  0.0000E+00  0.0000E+00  0.2000E+01  0.2000E+01
    -31.513  0.0000E+00  0.0000E+00  0.2000E+01  0.2000E+01
    -31.245  0.0000E+00  0.0000E+00  0.2000E+01  0.2000E+01
    -30.978  0.0000E+00  0.0000E+00  0.2000E+01  0.2000E+01
    -30.711  0.0000E+00  0.0000E+00  0.2000E+01  0.2000E+01
    -30.444  0.7693E-04  0.6144E-04  0.2000E+01  0.2000E+01
    -30.177  0.1640E-01  0.1322E-01  0.2004E+01  0.2004E+01
    -29.910  0.1911E+01  0.1664E+01  0.2515E+01  0.2448E+01
    -29.642  0.8831E+01  0.8656E+01  0.4874E+01  0.4761E+01
    -29.375  0.1038E+02  0.1057E+02  0.7678E+01  0.7617E+01
    -29.108  0.1067E+01  0.1283E+01  0.7998E+01  0.7998E+01
    -28.841  0.0000E+00  0.0000E+00  0.8000E+01  0.8000E+01
    -28.574  0.0000E+00  0.0000E+00  0.8000E+01  0.8000E+01
    -28.307  0.0000E+00  0.0000E+00  0.8000E+01  0.8000E+01
    -28.039  0.0000E+00  0.0000E+00  0.8000E+01  0.8000E+01
    -27.772  0.0000E+00  0.0000E+00  0.8000E+01  0.8000E+01
    -27.505  0.0000E+00  0.0000E+00  0.8000E+01  0.8000E+01
    -27.238  0.0000E+00  0.0000E+00  0.8000E+01  0.8000E+01
    -26.971  0.0000E+00  0.0000E+00  0.8000E+01  0.8000E+01
    -26.704  0.0000E+00  0.0000E+00  0.8000E+01  0.8000E+01
    -26.436  0.0000E+00  0.0000E+00  0.8000E+01  0.8000E+01
    -26.169  0.0000E+00  0.0000E+00  0.8000E+01  0.8000E+01
    -25.902  0.0000E+00  0.0000E+00  0.8000E+01  0.8000E+01
    -25.635  0.0000E+00  0.0000E+00  0.8000E+01  0.8000E+01
    -25.368  0.0000E+00  0.0000E+00  0.8000E+01  0.8000E+01
    -25.101  0.0000E+00  0.0000E+00  0.8000E+01  0.8000E+01
    -24.833  0.0000E+00  0.0000E+00  0.8000E+01  0.8000E+01
    -24.566  0.0000E+00  0.0000E+00  0.8000E+01  0.8000E+01
    -24.299  0.0000E+00  0.0000E+00  0.8000E+01  0.8000E+01
    -24.032  0.0000E+00  0.0000E+00  0.8000E+01  0.8000E+01
    -23.765  0.0000E+00  0.0000E+00  0.8000E+01  0.8000E+01
    -23.498  0.0000E+00  0.0000E+00  0.8000E+01  0.8000E+01
    -23.230  0.0000E+00  0.0000E+00  0.8000E+01  0.8000E+01
    -22.963  0.0000E+00  0.0000E+00  0.8000E+01  0.8000E+01
    -22.696  0.0000E+00  0.0000E+00  0.8000E+01  0.8000E+01
    -22.429  0.0000E+00  0.0000E+00  0.8000E+01  0.8000E+01
    -22.162  0.0000E+00  0.0000E+00  0.8000E+01  0.8000E+01
    -21.895  0.0000E+00  0.0000E+00  0.8000E+01  0.8000E+01
    -21.627  0.0000E+00  0.0000E+00  0.8000E+01  0.8000E+01
    -21.360  0.0000E+00  0.0000E+00  0.8000E+01  0.8000E+01
    -21.093  0.0000E+00  0.0000E+00  0.8000E+01  0.8000E+01
    -20.826  0.0000E+00  0.0000E+00  0.8000E+01  0.8000E+01
    -20.559  0.0000E+00  0.0000E+00  0.8000E+01  0.8000E+01
    -20.292  0.0000E+00  0.0000E+00  0.8000E+01  0.8000E+01
    -20.024  0.0000E+00  0.0000E+00  0.8000E+01  0.8000E+01
    -19.757  0.0000E+00  0.0000E+00  0.8000E+01  0.8000E+01
    -19.490  0.0000E+00  0.0000E+00  0.8000E+01  0.8000E+01
    -19.223  0.0000E+00  0.0000E+00  0.8000E+01  0.8000E+01
    -18.956  0.0000E+00  0.0000E+00  0.8000E+01  0.8000E+01
    -18.689  0.0000E+00  0.0000E+00  0.8000E+01  0.8000E+01
    -18.421  0.0000E+00  0.0000E+00  0.8000E+01  0.8000E+01
    -18.154  0.0000E+00  0.0000E+00  0.8000E+01  0.8000E+01
    -17.887  0.0000E+00  0.0000E+00  0.8000E+01  0.8000E+01
    -17.620  0.0000E+00  0.0000E+00  0.8000E+01  0.8000E+01
    -17.353  0.0000E+00  0.0000E+00  0.8000E+01  0.8000E+01
    -17.086  0.0000E+00  0.0000E+00  0.8000E+01  0.8000E+01
    -16.818  0.0000E+00  0.0000E+00  0.8000E+01  0.8000E+01
    -16.551  0.0000E+00  0.0000E+00  0.8000E+01  0.8000E+01
    -16.284  0.0000E+00  0.0000E+00  0.8000E+01  0.8000E+01
    -16.017  0.0000E+00  0.0000E+00  0.8000E+01  0.8000E+01
    -15.750  0.0000E+00  0.0000E+00  0.8000E+01  0.8000E+01
    -15.483  0.0000E+00  0.0000E+00  0.8000E+01  0.8000E+01
    -15.216  0.0000E+00  0.0000E+00  0.8000E+01  0.8000E+01
    -14.948  0.0000E+00  0.0000E+00  0.8000E+01  0.8000E+01
    -14.681  0.0000E+00  0.0000E+00  0.8000E+01  0.8000E+01
    -14.414  0.0000E+00  0.0000E+00  0.8000E+01  0.8000E+01
    -14.147  0.0000E+00  0.0000E+00  0.8000E+01  0.8000E+01
    -13.880  0.0000E+00  0.0000E+00  0.8000E+01  0.8000E+01
    -13.613  0.0000E+00  0.0000E+00  0.8000E+01  0.8000E+01
    -13.345  0.0000E+00  0.0000E+00  0.8000E+01  0.8000E+01
    -13.078  0.0000E+00  0.0000E+00  0.8000E+01  0.8000E+01
    -12.811  0.0000E+00  0.0000E+00  0.8000E+01  0.8000E+01
    -12.544  0.0000E+00  0.0000E+00  0.8000E+01  0.8000E+01
    -12.277  0.0000E+00  0.0000E+00  0.8000E+01  0.8000E+01
    -12.010  0.0000E+00  0.0000E+00  0.8000E+01  0.8000E+01
    -11.742  0.0000E+00  0.0000E+00  0.8000E+01  0.8000E+01
    -11.475  0.0000E+00  0.0000E+00  0.8000E+01  0.8000E+01
    -11.208  0.0000E+00  0.0000E+00  0.8000E+01  0.8000E+01
    -10.941  0.0000E+00  0.0000E+00  0.8000E+01  0.8000E+01
    -10.674  0.0000E+00  0.0000E+00  0.8000E+01  0.8000E+01
    -10.407  0.0000E+00  0.0000E+00  0.8000E+01  0.8000E+01
    -10.139  0.0000E+00  0.0000E+00  0.8000E+01  0.8000E+01
     -9.872  0.0000E+00  0.0000E+00  0.8000E+01  0.8000E+01
     -9.605  0.0000E+00  0.0000E+00  0.8000E+01  0.8000E+01
     -9.338  0.0000E+00  0.0000E+00  0.8000E+01  0.8000E+01
     -9.071  0.0000E+00  0.0000E+00  0.8000E+01  0.8000E+01
     -8.804  0.0000E+00  0.0000E+00  0.8000E+01  0.8000E+01
     -8.536  0.0000E+00  0.0000E+00  0.8000E+01  0.8000E+01
     -8.269  0.0000E+00  0.0000E+00  0.8000E+01  0.8000E+01
     -8.002  0.0000E+00  0.0000E+00  0.8000E+01  0.8000E+01
     -7.735  0.0000E+00  0.0000E+00  0.8000E+01  0.8000E+01
     -7.468  0.0000E+00  0.0000E+00  0.8000E+01  0.8000E+01
     -7.201  0.0000E+00  0.0000E+00  0.8000E+01  0.8000E+01
     -6.933  0.0000E+00  0.0000E+00  0.8000E+01  0.8000E+01
     -6.666  0.0000E+00  0.0000E+00  0.8000E+01  0.8000E+01
     -6.399  0.0000E+00  0.0000E+00  0.8000E+01  0.8000E+01
     -6.132  0.0000E+00  0.0000E+00  0.8000E+01  0.8000E+01
     -5.865  0.0000E+00  0.0000E+00  0.8000E+01  0.8000E+01
     -5.598  0.0000E+00  0.0000E+00  0.8000E+01  0.8000E+01
     -5.330  0.0000E+00  0.0000E+00  0.8000E+01  0.8000E+01
     -5.063  0.0000E+00  0.0000E+00  0.8000E+01  0.8000E+01
     -4.796  0.0000E+00  0.0000E+00  0.8000E+01  0.8000E+01
     -4.529  0.0000E+00  0.0000E+00  0.8000E+01  0.8000E+01
     -4.262  0.0000E+00  0.0000E+00  0.8000E+01  0.8000E+01
     -3.995  0.0000E+00  0.0000E+00  0.8000E+01  0.8000E+01
     -3.727  0.0000E+00  0.0000E+00  0.8000E+01  0.8000E+01
     -3.460  0.0000E+00  0.0000E+00  0.8000E+01  0.8000E+01
     -3.193  0.0000E+00  0.0000E+00  0.8000E+01  0.8000E+01
     -2.926  0.0000E+00  0.0000E+00  0.8000E+01  0.8000E+01
     -2.659  0.0000E+00  0.0000E+00  0.8000E+01  0.8000E+01
     -2.392  0.0000E+00  0.0000E+00  0.8000E+01  0.8000E+01
     -2.124  0.0000E+00  0.0000E+00  0.8000E+01  0.8000E+01
     -1.857  0.0000E+00  0.0000E+00  0.8000E+01  0.8000E+01
     -1.590  0.0000E+00  0.0000E+00  0.8000E+01  0.8000E+01
     -1.323  0.0000E+00  0.0000E+00  0.8000E+01  0.8000E+01
     -1.056  0.0000E+00  0.0000E+00  0.8000E+01  0.8000E+01
     -0.789  0.0000E+00  0.0000E+00  0.8000E+01  0.8000E+01
     -0.521  0.0000E+00  0.0000E+00  0.8000E+01  0.8000E+01
     -0.254  0.0000E+00  0.0000E+00  0.8000E+01  0.8000E+01
      0.013  0.0000E+00  0.0000E+00  0.8000E+01  0.8000E+01
      0.280  0.0000E+00  0.0000E+00  0.8000E+01  0.8000E+01
      0.547  0.0000E+00  0.0000E+00  0.8000E+01  0.8000E+01
      0.814  0.0000E+00  0.0000E+00  0.8000E+01  0.8000E+01
      1.081  0.0000E+00  0.0000E+00  0.8000E+01  0.8000E+01
      1.349  0.7403E-06  0.6315E-06  0.8000E+01  0.8000E+01
      1.616  0.1515E-03  0.1297E-03  0.8000E+01  0.8000E+01
      1.883  0.9979E-02  0.9179E-02  0.8003E+01  0.8002E+01
      2.150  0.3902E-01  0.3859E-01  0.8013E+01  0.8013E+01
      2.417  0.7283E-01  0.7189E-01  0.8033E+01  0.8032E+01
      2.684  0.6555E-01  0.6693E-01  0.8051E+01  0.8050E+01
      2.952  0.1061E+00  0.1068E+00  0.8079E+01  0.8079E+01
      3.219  0.1170E+00  0.1168E+00  0.8111E+01  0.8110E+01
      3.486  0.1261E+00  0.1227E+00  0.8145E+01  0.8144E+01
      3.753  0.1682E+00  0.1686E+00  0.8190E+01  0.8189E+01
      4.020  0.1410E+00  0.1399E+00  0.8228E+01  0.8227E+01
      4.287  0.2173E+00  0.2164E+00  0.8287E+01  0.8285E+01
      4.555  0.2474E+00  0.2494E+00  0.8354E+01  0.8352E+01
      4.822  0.2526E+00  0.2485E+00  0.8423E+01  0.8421E+01
      5.089  0.3884E+00  0.3891E+00  0.8529E+01  0.8525E+01
      5.356  0.6499E+00  0.6463E+00  0.8705E+01  0.8699E+01
      5.623  0.8448E+00  0.8288E+00  0.8933E+01  0.8923E+01
      5.890  0.1070E+01  0.1068E+01  0.9220E+01  0.9210E+01
      6.158  0.1509E+01  0.1505E+01  0.9627E+01  0.9615E+01
      6.425  0.1209E+01  0.1213E+01  0.9954E+01  0.9944E+01
      6.692  0.7949E+00  0.8098E+00  0.1017E+02  0.1017E+02
      6.959  0.1061E+01  0.1011E+01  0.1046E+02  0.1044E+02
      7.226  0.2493E+01  0.2454E+01  0.1112E+02  0.1109E+02
      7.493  0.2419E+01  0.2439E+01  0.1178E+02  0.1175E+02
      7.761  0.2364E+01  0.2358E+01  0.1242E+02  0.1239E+02
      8.028  0.2399E+01  0.2426E+01  0.1307E+02  0.1305E+02
      8.295  0.1603E+01  0.1637E+01  0.1351E+02  0.1349E+02
      8.562  0.8931E+00  0.9176E+00  0.1375E+02  0.1374E+02
      8.829  0.4756E+00  0.4750E+00  0.1388E+02  0.1387E+02
      9.096  0.7058E+00  0.6997E+00  0.1407E+02  0.1406E+02
      9.364  0.1106E+01  0.1075E+01  0.1437E+02  0.1435E+02
      9.631  0.1800E+01  0.1775E+01  0.1485E+02  0.1483E+02
      9.898  0.2510E+01  0.2489E+01  0.1553E+02  0.1550E+02
     10.165  0.3094E+01  0.3093E+01  0.1636E+02  0.1633E+02
     10.432  0.3940E+01  0.3926E+01  0.1742E+02  0.1739E+02
     10.699  0.2031E+01  0.2077E+01  0.1798E+02  0.1796E+02
     10.967  0.1456E+01  0.1467E+01  0.1838E+02  0.1836E+02
     11.234  0.1019E+01  0.1035E+01  0.1865E+02  0.1864E+02
     11.501  0.6111E+00  0.6372E+00  0.1882E+02  0.1882E+02
     11.768  0.4434E+00  0.4327E+00  0.1894E+02  0.1894E+02
     12.035  0.3746E+00  0.3892E+00  0.1904E+02  0.1904E+02
     12.302  0.4108E+00  0.4039E+00  0.1915E+02  0.1915E+02
     12.570  0.4570E+00  0.4625E+00  0.1928E+02  0.1927E+02
     12.837  0.2157E+00  0.2195E+00  0.1934E+02  0.1933E+02
     13.104  0.3747E+00  0.3702E+00  0.1944E+02  0.1943E+02
     13.371  0.3547E+00  0.3534E+00  0.1953E+02  0.1953E+02
     13.638  0.2825E+00  0.2883E+00  0.1961E+02  0.1961E+02
     13.905  0.1727E+00  0.1760E+00  0.1966E+02  0.1965E+02
     14.173  0.2766E+00  0.2734E+00  0.1973E+02  0.1973E+02
     14.440  0.2159E+00  0.2226E+00  0.1979E+02  0.1979E+02
     14.707  0.1965E+00  0.1925E+00  0.1984E+02  0.1984E+02
     14.974  0.1604E+00  0.1632E+00  0.1988E+02  0.1988E+02
     15.241  0.1067E+00  0.1088E+00  0.1991E+02  0.1991E+02
     15.508  0.8890E-01  0.8740E-01  0.1994E+02  0.1994E+02
     15.776  0.1050E+00  0.1045E+00  0.1997E+02  0.1997E+02
     16.043  0.4883E-01  0.5192E-01  0.1998E+02  0.1998E+02
     16.310  0.5773E-02  0.5405E-02  0.1998E+02  0.1998E+02
     16.577  0.4530E-01  0.4504E-01  0.1999E+02  0.1999E+02
     16.844  0.1887E-01  0.1913E-01  0.2000E+02  0.2000E+02
     17.111  0.3969E-02  0.4444E-02  0.2000E+02  0.2000E+02
     17.378  0.0000E+00  0.0000E+00  0.2000E+02  0.2000E+02
     17.646  0.0000E+00  0.0000E+00  0.2000E+02  0.2000E+02
     17.913  0.0000E+00  0.0000E+00  0.2000E+02  0.2000E+02
     18.180  0.0000E+00  0.0000E+00  0.2000E+02  0.2000E+02
     18.447  0.0000E+00  0.0000E+00  0.2000E+02  0.2000E+02
     18.714  0.0000E+00  0.0000E+00  0.2000E+02  0.2000E+02
     18.981  0.0000E+00  0.0000E+00  0.2000E+02  0.2000E+02
     19.249  0.0000E+00  0.0000E+00  0.2000E+02  0.2000E+02
     19.516  0.0000E+00  0.0000E+00  0.2000E+02  0.2000E+02
     19.783  0.0000E+00  0.0000E+00  0.2000E+02  0.2000E+02
     20.050  0.0000E+00  0.0000E+00  0.2000E+02  0.2000E+02
     20.317  0.0000E+00  0.0000E+00  0.2000E+02  0.2000E+02
     20.584  0.0000E+00  0.0000E+00  0.2000E+02  0.2000E+02
     20.58446370    -59.56471628  301      8.00107523      1.00000000
    -59.565  0.0000E+00  0.0000E+00  0.0000E+00  0.0000E+00  0.0000E+00  0.0000E+00  0.0000E+00  0.0000E+00  0.0000E+00  0.0000E+00  0.0000E+00  0.0000E+00  0.0000E+00  0.0000E+00  0.0000E+00  0.0000E+00  0.0000E+00  0.0000E+00
    -59.298  0.0000E+00  0.0000E+00  0.0000E+00  0.0000E+00  0.0000E+00  0.0000E+00  0.0000E+00  0.0000E+00  0.0000E+00  0.0000E+00  0.0000E+00  0.0000E+00  0.0000E+00  0.0000E+00  0.0000E+00  0.0000E+00  0.0000E+00  0.0000E+00
    -59.030  0.0000E+00  0.0000E+00  0.0000E+00  0.0000E+00  0.0000E+00  0.0000E+00  0.0000E+00  0.0000E+00  0.0000E+00  0.0000E+00  0.0000E+00  0.0000E+00  0.0000E+00  0.0000E+00  0.0000E+00  0.0000E+00  0.0000E+00  0.0000E+00
    -58.763  0.0000E+00  0.0000E+00  0.0000E+00  0.0000E+00  0.0000E+00  0.0000E+00  0.0000E+00  0.0000E+00  0.0000E+00  0.0000E+00  0.0000E+00  0.0000E+00  0.0000E+00  0.0000E+00  0.0000E+00  0.0000E+00  0.0000E+00  0.0000E+00
    -58.496  0.0000E+00  0.0000E+00  0.0000E+00  0.0000E+00  0.0000E+00  0.0000E+00  0.0000E+00  0.0000E+00  0.0000E+00  0.0000E+00  0.0000E+00  0.0000E+00  0.0000E+00  0.0000E+00  0.0000E+00  0.0000E+00  0.0000E+00  0.0000E+00
    -58.229  0.0000E+00  0.0000E+00  0.0000E+00  0.0000E+00  0.0000E+00  0.0000E+00  0.0000E+00  0.0000E+00  0.0000E+00  0.0000E+00  0.0000E+00  0.0000E+00  0.0000E+00  0.0000E+00  0.0000E+00  0.0000E+00  0.0000E+00  0.0000E+00
    -57.962  0.0000E+00  0.0000E+00  0.0000E+00  0.0000E+00  0.0000E+00  0.0000E+00  0.0000E+00  0.0000E+00  0.0000E+00  0.0000E+00  0.0000E+00  0.0000E+00  0.0000E+00  0.0000E+00  0.0000E+00  0.0000E+00  0.0000E+00  0.0000E+00
    -57.695  0.0000E+00  0.0000E+00  0.0000E+00  0.0000E+00  0.0000E+00  0.0000E+00  0.0000E+00  0.0000E+00  0.0000E+00  0.0000E+00  0.0000E+00  0.0000E+00  0.0000E+00  0.0000E+00  0.0000E+00  0.0000E+00  0.0000E+00  0.0000E+00
    -57.427  0.0000E+00  0.0000E+00  0.0000E+00  0.0000E+00  0.0000E+00  0.0000E+00  0.0000E+00  0.0000E+00  0.0000E+00  0.0000E+00  0.0000E+00  0.0000E+00  0.0000E+00  0.0000E+00  0.0000E+00  0.0000E+00  0.0000E+00  0.0000E+00
    -57.160  0.0000E+00  0.0000E+00  0.0000E+00  0.0000E+00  0.0000E+00  0.0000E+00  0.0000E+00  0.0000E+00  0.0000E+00  0.0000E+00  0.0000E+00  0.0000E+00  0.0000E+00  0.0000E+00  0.0000E+00  0.0000E+00  0.0000E+00  0.0000E+00
    -56.893  0.0000E+00  0.0000E+00  0.0000E+00  0.0000E+00  0.0000E+00  0.0000E+00  0.0000E+00  0.0000E+00  0.0000E+00  0.0000E+00  0.0000E+00  0.0000E+00  0.0000E+00  0.0000E+00  0.0000E+00  0.0000E+00  0.0000E+00  0.0000E+00
    -56.626  0.0000E+00  0.0000E+00  0.0000E+00  0.0000E+00  0.0000E+00  0.0000E+00  0.0000E+00  0.0000E+00  0.0000E+00  0.0000E+00  0.0000E+00  0.0000E+00  0.0000E+00  0.0000E+00  0.0000E+00  0.0000E+00  0.0000E+00  0.0000E+00
    -56.359  0.9333E-04  0.7493E-04  0.3715E-09  0.2981E-09  0.3715E-09  0.2981E-09  0.3715E-09  0.2981E-09  0.3356E-09  0.2693E-09  0.3356E-09  0.2693E-09  0.1108E-10  0.8874E-11  0.3356E-09  0.2693E-09  0.1108E-10  0.8874E-11
    -56.092  0.1925E-01  0.1549E-01  0.7660E-07  0.6159E-07  0.7660E-07  0.6159E-07  0.7660E-07  0.6159E-07  0.6948E-07  0.5583E-07  0.6948E-07  0.5583E-07  0.2293E-08  0.1839E-08  0.6948E-07  0.5583E-07  0.2293E-08  0.1839E-08
    -55.824  0.1701E+01  0.1522E+01  0.6249E-05  0.5641E-05  0.6249E-05  0.5641E-05  0.6249E-05  0.5641E-05  0.7302E-05  0.6470E-05  0.7302E-05  0.6470E-05  0.2297E-06  0.2037E-06  0.7302E-05  0.6470E-05  0.2297E-06  0.2037E-06
    -55.557  0.1984E+01  0.2161E+01  0.6208E-05  0.6804E-05  0.6208E-05  0.6804E-05  0.6208E-05  0.6804E-05  0.8870E-05  0.9682E-05  0.8870E-05  0.9682E-05  0.2676E-06  0.2910E-06  0.8870E-05  0.9682E-05  0.2676E-06  0.2910E-06
    -55.290  0.0000E+00  0.0000E+00  0.0000E+00  0.0000E+00  0.0000E+00  0.0000E+00  0.0000E+00  0.0000E+00  0.0000E+00  0.0000E+00  0.0000E+00  0.0000E+00  0.0000E+00  0.0000E+00  0.0000E+00  0.0000E+00  0.0000E+00  0.0000E+00
    -55.023  0.0000E+00  0.0000E+00  0.0000E+00  0.0000E+00  0.0000E+00  0.0000E+00  0.0000E+00  0.0000E+00  0.0000E+00  0.0000E+00  0.0000E+00  0.0000E+00  0.0000E+00  0.0000E+00  0.0000E+00  0.0000E+00  0.0000E+00  0.0000E+00
    -54.756  0.0000E+00  0.0000E+00  0.0000E+00  0.0000E+00  0.0000E+00  0.0000E+00  0.0000E+00  0.0000E+00  0.0000E+00  0.0000E+00  0.0000E+00  0.0000E+00  0.0000E+00  0.0000E+00  0.0000E+00  0.0000E+00  0.0000E+00  0.0000E+00
    -54.489  0.0000E+00  0.0000E+00  0.0000E+00  0.0000E+00  0.0000E+00  0.0000E+00  0.0000E+00  0.0000E+00  0.0000E+00  0.0000E+00  0.0000E+00  0.0000E+00  0.0000E+00  0.0000E+00  0.0000E+00  0.0000E+00  0.0000E+00  0.0000E+00
    -54.221  0.0000E+00  0.0000E+00  0.0000E+00  0.0000E+00  0.0000E+00  0.0000E+00  0.0000E+00  0.0000E+00  0.0000E+00  0.0000E+00  0.0000E+00  0.0000E+00  0.0000E+00  0.0000E+00  0.0000E+00  0.0000E+00  0.0000E+00  0.0000E+00
    -53.954  0.0000E+00  0.0000E+00  0.0000E+00  0.0000E+00  0.0000E+00  0.0000E+00  0.0000E+00  0.0000E+00  0.0000E+00  0.0000E+00  0.0000E+00  0.0000E+00  0.0000E+00  0.0000E+00  0.0000E+00  0.0000E+00  0.0000E+00  0.0000E+00
    -53.687  0.0000E+00  0.0000E+00  0.0000E+00  0.0000E+00  0.0000E+00  0.0000E+00  0.0000E+00  0.0000E+00  0.0000E+00  0.0000E+00  0.0000E+00  0.0000E+00  0.0000E+00  0.0000E+00  0.0000E+00  0.0000E+00  0.0000E+00  0.0000E+00
    -53.420  0.0000E+00  0.0000E+00  0.0000E+00  0.0000E+00  0.0000E+00  0.0000E+00  0.0000E+00  0.0000E+00  0.0000E+00  0.0000E+00  0.0000E+00  0.0000E+00  0.0000E+00  0.0000E+00  0.0000E+00  0.0000E+00  0.0000E+00  0.0000E+00
    -53.153  0.0000E+00  0.0000E+00  0.0000E+00  0.0000E+00  0.0000E+00  0.0000E+00  0.0000E+00  0.0000E+00  0.0000E+00  0.0000E+00  0.0000E+00  0.0000E+00  0.0000E+00  0.0000E+00  0.0000E+00  0.0000E+00  0.0000E+00  0.0000E+00
    -52.886  0.0000E+00  0.0000E+00  0.0000E+00  0.0000E+00  0.0000E+00  0.0000E+00  0.0000E+00  0.0000E+00  0.0000E+00  0.0000E+00  0.0000E+00  0.0000E+00  0.0000E+00  0.0000E+00  0.0000E+00  0.0000E+00  0.0000E+00  0.0000E+00
    -52.618  0.0000E+00  0.0000E+00  0.0000E+00  0.0000E+00  0.0000E+00  0.0000E+00  0.0000E+00  0.0000E+00  0.0000E+00  0.0000E+00  0.0000E+00  0.0000E+00  0.0000E+00  0.0000E+00  0.0000E+00  0.0000E+00  0.0000E+00  0.0000E+00
    -52.351  0.0000E+00  0.0000E+00  0.0000E+00  0.0000E+00  0.0000E+00  0.0000E+00  0.0000E+00  0.0000E+00  0.0000E+00  0.0000E+00  0.0000E+00  0.0000E+00  0.0000E+00  0.0000E+00  0.0000E+00  0.0000E+00  0.0000E+00  0.0000E+00
    -52.084  0.0000E+00  0.0000E+00  0.0000E+00  0.0000E+00  0.0000E+00  0.0000E+00  0.0000E+00  0.0000E+00  0.0000E+00  0.0000E+00  0.0000E+00  0.0000E+00  0.0000E+00  0.0000E+00  0.0000E+00  0.0000E+00  0.0000E+00  0.0000E+00
    -51.817  0.0000E+00  0.0000E+00  0.0000E+00  0.0000E+00  0.0000E+00  0.0000E+00  0.0000E+00  0.0000E+00  0.0000E+00  0.0000E+00  0.0000E+00  0.0000E+00  0.0000E+00  0.0000E+00  0.0000E+00  0.0000E+00  0.0000E+00  0.0000E+00
    -51.550  0.0000E+00  0.0000E+00  0.0000E+00  0.0000E+00  0.0000E+00  0.0000E+00  0.0000E+00  0.0000E+00  0.0000E+00  0.0000E+00  0.0000E+00  0.0000E+00  0.0000E+00  0.0000E+00  0.0000E+00  0.0000E+00  0.0000E+00  0.0000E+00
    -51.283  0.0000E+00  0.0000E+00  0.0000E+00  0.0000E+00  0.0000E+00  0.0000E+00  0.0000E+00  0.0000E+00  0.0000E+00  0.0000E+00  0.0000E+00  0.0000E+00  0.0000E+00  0.0000E+00  0.0000E+00  0.0000E+00  0.0000E+00  0.0000E+00
    -51.015  0.0000E+00  0.0000E+00  0.0000E+00  0.0000E+00  0.0000E+00  0.0000E+00  0.0000E+00  0.0000E+00  0.0000E+00  0.0000E+00  0.0000E+00  0.0000E+00  0.0000E+00  0.0000E+00  0.0000E+00  0.0000E+00  0.0000E+00  0.0000E+00
    -50.748  0.0000E+00  0.0000E+00  0.0000E+00  0.0000E+00  0.0000E+00  0.0000E+00  0.0000E+00  0.0000E+00  0.0000E+00  0.0000E+00  0.0000E+00  0.0000E+00  0.0000E+00  0.0000E+00  0.0000E+00  0.0000E+00  0.0000E+00  0.0000E+00
    -50.481  0.0000E+00  0.0000E+00  0.0000E+00  0.0000E+00  0.0000E+00  0.0000E+00  0.0000E+00  0.0000E+00  0.0000E+00  0.0000E+00  0.0000E+00  0.0000E+00  0.0000E+00  0.0000E+00  0.0000E+00  0.0000E+00  0.0000E+00  0.0000E+00
    -50.214  0.0000E+00  0.0000E+00  0.0000E+00  0.0000E+00  0.0000E+00  0.0000E+00  0.0000E+00  0.0000E+00  0.0000E+00  0.0000E+00  0.0000E+00  0.0000E+00  0.0000E+00  0.0000E+00  0.0000E+00  0.0000E+00  0.0000E+00  0.0000E+00
    -49.947  0.0000E+00  0.0000E+00  0.0000E+00  0.0000E+00  0.0000E+00  0.0000E+00  0.0000E+00  0.0000E+00  0.0000E+00  0.0000E+00  0.0000E+00  0.0000E+00  0.0000E+00  0.0000E+00  0.0000E+00  0.0000E+00  0.0000E+00  0.0000E+00
    -49.680  0.0000E+00  0.0000E+00  0.0000E+00  0.0000E+00  0.0000E+00  0.0000E+00  0.0000E+00  0.0000E+00  0.0000E+00  0.0000E+00  0.0000E+00  0.0000E+00  0.0000E+00  0.0000E+00  0.0000E+00  0.0000E+00  0.0000E+00  0.0000E+00
    -49.412  0.0000E+00  0.0000E+00  0.0000E+00  0.0000E+00  0.0000E+00  0.0000E+00  0.0000E+00  0.0000E+00  0.0000E+00  0.0000E+00  0.0000E+00  0.0000E+00  0.0000E+00  0.0000E+00  0.0000E+00  0.0000E+00  0.0000E+00  0.0000E+00
    -49.145  0.0000E+00  0.0000E+00  0.0000E+00  0.0000E+00  0.0000E+00  0.0000E+00  0.0000E+00  0.0000E+00  0.0000E+00  0.0000E+00  0.0000E+00  0.0000E+00  0.0000E+00  0.0000E+00  0.0000E+00  0.0000E+00  0.0000E+00  0.0000E+00
    -48.878  0.0000E+00  0.0000E+00  0.0000E+00  0.0000E+00  0.0000E+00  0.0000E+00  0.0000E+00  0.0000E+00  0.0000E+00  0.0000E+00  0.0000E+00  0.0000E+00  0.0000E+00  0.0000E+00  0.0000E+00  0.0000E+00  0.0000E+00  0.0000E+00
    -48.611  0.0000E+00  0.0000E+00  0.0000E+00  0.0000E+00  0.0000E+00  0.0000E+00  0.0000E+00  0.0000E+00  0.0000E+00  0.0000E+00  0.0000E+00  0.0000E+00  0.0000E+00  0.0000E+00  0.0000E+00  0.0000E+00  0.0000E+00  0.0000E+00
    -48.344  0.0000E+00  0.0000E+00  0.0000E+00  0.0000E+00  0.0000E+00  0.0000E+00  0.0000E+00  0.0000E+00  0.0000E+00  0.0000E+00  0.0000E+00  0.0000E+00  0.0000E+00  0.0000E+00  0.0000E+00  0.0000E+00  0.0000E+00  0.0000E+00
    -48.077  0.0000E+00  0.0000E+00  0.0000E+00  0.0000E+00  0.0000E+00  0.0000E+00  0.0000E+00  0.0000E+00  0.0000E+00  0.0000E+00  0.0000E+00  0.0000E+00  0.0000E+00  0.0000E+00  0.0000E+00  0.0000E+00  0.0000E+00  0.0000E+00
    -47.810  0.0000E+00  0.0000E+00  0.0000E+00  0.0000E+00  0.0000E+00  0.0000E+00  0.0000E+00  0.0000E+00  0.0000E+00  0.0000E+00  0.0000E+00  0.0000E+00  0.0000E+00  0.0000E+00  0.0000E+00  0.0000E+00  0.0000E+00  0.0000E+00
    -47.542  0.0000E+00  0.0000E+00  0.0000E+00  0.0000E+00  0.0000E+00  0.0000E+00  0.0000E+00  0.0000E+00  0.0000E+00  0.0000E+00  0.0000E+00  0.0000E+00  0.0000E+00  0.0000E+00  0.0000E+00  0.0000E+00  0.0000E+00  0.0000E+00
    -47.275  0.0000E+00  0.0000E+00  0.0000E+00  0.0000E+00  0.0000E+00  0.0000E+00  0.0000E+00  0.0000E+00  0.0000E+00  0.0000E+00  0.0000E+00  0.0000E+00  0.0000E+00  0.0000E+00  0.0000E+00  0.0000E+00  0.0000E+00  0.0000E+00
    -47.008  0.0000E+00  0.0000E+00  0.0000E+00  0.0000E+00  0.0000E+00  0.0000E+00  0.0000E+00  0.0000E+00  0.0000E+00  0.0000E+00  0.0000E+00  0.0000E+00  0.0000E+00  0.0000E+00  0.0000E+00  0.0000E+00  0.0000E+00  0.0000E+00
    -46.741  0.0000E+00  0.0000E+00  0.0000E+00  0.0000E+00  0.0000E+00  0.0000E+00  0.0000E+00  0.0000E+00  0.0000E+00  0.0000E+00  0.0000E+00  0.0000E+00  0.0000E+00  0.0000E+00  0.0000E+00  0.0000E+00  0.0000E+00  0.0000E+00
    -46.474  0.0000E+00  0.0000E+00  0.0000E+00  0.0000E+00  0.0000E+00  0.0000E+00  0.0000E+00  0.0000E+00  0.0000E+00  0.0000E+00  0.0000E+00  0.0000E+00  0.0000E+00  0.0000E+00  0.0000E+00  0.0000E+00  0.0000E+00  0.0000E+00
    -46.207  0.0000E+00  0.0000E+00  0.0000E+00  0.0000E+00  0.0000E+00  0.0000E+00  0.0000E+00  0.0000E+00  0.0000E+00  0.0000E+00  0.0000E+00  0.0000E+00  0.0000E+00  0.0000E+00  0.0000E+00  0.0000E+00  0.0000E+00  0.0000E+00