   2   2   1   0
  0.1387328E+02  0.3027400E-09  0.3027400E-09  0.3027400E-09  0.5000000E-15
  1.000000000000000E-004
  CAR 
 unknown system                          
     22.96036710    -58.10367111  301      9.34785369      1.00000000
    -58.104  0.0000E+00  0.0000E+00  0.0000E+00  0.0000E+00
    -57.833  0.0000E+00  0.0000E+00  0.0000E+00  0.0000E+00
    -57.563  0.0000E+00  0.0000E+00  0.0000E+00  0.0000E+00
    -57.293  0.0000E+00  0.0000E+00  0.0000E+00  0.0000E+00
    -57.023  0.0000E+00  0.0000E+00  0.0000E+00  0.0000E+00
    -56.753  0.0000E+00  0.0000E+00  0.0000E+00  0.0000E+00
    -56.482  0.0000E+00  0.0000E+00  0.0000E+00  0.0000E+00
    -56.212  0.0000E+00  0.0000E+00  0.0000E+00  0.0000E+00
    -55.942  0.0000E+00  0.0000E+00  0.0000E+00  0.0000E+00
    -55.672  0.0000E+00  0.0000E+00  0.0000E+00  0.0000E+00
    -55.402  0.0000E+00  0.0000E+00  0.0000E+00  0.0000E+00
    -55.131  0.0000E+00  0.0000E+00  0.0000E+00  0.0000E+00
    -54.861  0.7138E-04  0.6542E-04  0.1929E-04  0.1768E-04
    -54.591  0.1585E-01  0.1457E-01  0.4302E-02  0.3956E-02
    -54.321  0.1734E+01  0.1645E+01  0.4728E+00  0.4484E+00
    -54.050  0.5444E+01  0.5517E+01  0.1944E+01  0.1939E+01
    -53.780  0.6185E-01  0.7539E-01  0.2000E+01  0.2000E+01
    -53.510  0.0000E+00  0.0000E+00  0.2000E+01  0.2000E+01
    -53.240  0.0000E+00  0.0000E+00  0.2000E+01  0.2000E+01
    -52.970  0.0000E+00  0.0000E+00  0.2000E+01  0.2000E+01
    -52.699  0.0000E+00  0.0000E+00  0.2000E+01  0.2000E+01
    -52.429  0.0000E+00  0.0000E+00  0.2000E+01  0.2000E+01
    -52.159  0.0000E+00  0.0000E+00  0.2000E+01  0.2000E+01
    -51.889  0.0000E+00  0.0000E+00  0.2000E+01  0.2000E+01
    -51.619  0.0000E+00  0.0000E+00  0.2000E+01  0.2000E+01
    -51.348  0.0000E+00  0.0000E+00  0.2000E+01  0.2000E+01
    -51.078  0.0000E+00  0.0000E+00  0.2000E+01  0.2000E+01
    -50.808  0.0000E+00  0.0000E+00  0.2000E+01  0.2000E+01
    -50.538  0.0000E+00  0.0000E+00  0.2000E+01  0.2000E+01
    -50.267  0.0000E+00  0.0000E+00  0.2000E+01  0.2000E+01
    -49.997  0.0000E+00  0.0000E+00  0.2000E+01  0.2000E+01
    -49.727  0.0000E+00  0.0000E+00  0.2000E+01  0.2000E+01
    -49.457  0.0000E+00  0.0000E+00  0.2000E+01  0.2000E+01
    -49.187  0.0000E+00  0.0000E+00  0.2000E+01  0.2000E+01
    -48.916  0.0000E+00  0.0000E+00  0.2000E+01  0.2000E+01
    -48.646  0.0000E+00  0.0000E+00  0.2000E+01  0.2000E+01
    -48.376  0.0000E+00  0.0000E+00  0.2000E+01  0.2000E+01
    -48.106  0.0000E+00  0.0000E+00  0.2000E+01  0.2000E+01
    -47.836  0.0000E+00  0.0000E+00  0.2000E+01  0.2000E+01
    -47.565  0.0000E+00  0.0000E+00  0.2000E+01  0.2000E+01
    -47.295  0.0000E+00  0.0000E+00  0.2000E+01  0.2000E+01
    -47.025  0.0000E+00  0.0000E+00  0.2000E+01  0.2000E+01
    -46.755  0.0000E+00  0.0000E+00  0.2000E+01  0.2000E+01
    -46.484  0.0000E+00  0.0000E+00  0.2000E+01  0.2000E+01
    -46.214  0.0000E+00  0.0000E+00  0.2000E+01  0.2000E+01
    -45.944  0.0000E+00  0.0000E+00  0.2000E+01  0.2000E+01
    -45.674  0.0000E+00  0.0000E+00  0.2000E+01  0.2000E+01
    -45.404  0.0000E+00  0.0000E+00  0.2000E+01  0.2000E+01
    -45.133  0.0000E+00  0.0000E+00  0.2000E+01  0.2000E+01
    -44.863  0.0000E+00  0.0000E+00  0.2000E+01  0.2000E+01
    -44.593  0.0000E+00  0.0000E+00  0.2000E+01  0.2000E+01
    -44.323  0.0000E+00  0.0000E+00  0.2000E+01  0.2000E+01
    -44.053  0.0000E+00  0.0000E+00  0.2000E+01  0.2000E+01
    -43.782  0.0000E+00  0.0000E+00  0.2000E+01  0.2000E+01
    -43.512  0.0000E+00  0.0000E+00  0.2000E+01  0.2000E+01
    -43.242  0.0000E+00  0.0000E+00  0.2000E+01  0.2000E+01
    -42.972  0.0000E+00  0.0000E+00  0.2000E+01  0.2000E+01
    -42.702  0.0000E+00  0.0000E+00  0.2000E+01  0.2000E+01
    -42.431  0.0000E+00  0.0000E+00  0.2000E+01  0.2000E+01
    -42.161  0.0000E+00  0.0000E+00  0.2000E+01  0.2000E+01
    -41.891  0.0000E+00  0.0000E+00  0.2000E+01  0.2000E+01
    -41.621  0.0000E+00  0.0000E+00  0.2000E+01  0.2000E+01
    -41.350  0.0000E+00  0.0000E+00  0.2000E+01  0.2000E+01
    -41.080  0.0000E+00  0.0000E+00  0.2000E+01  0.2000E+01
    -40.810  0.0000E+00  0.0000E+00  0.2000E+01  0.2000E+01
    -40.540  0.0000E+00  0.0000E+00  0.2000E+01  0.2000E+01
    -40.270  0.0000E+00  0.0000E+00  0.2000E+01  0.2000E+01
    -39.999  0.0000E+00  0.0000E+00  0.2000E+01  0.2000E+01
    -39.729  0.0000E+00  0.0000E+00  0.2000E+01  0.2000E+01
    -39.459  0.0000E+00  0.0000E+00  0.2000E+01  0.2000E+01
    -39.189  0.0000E+00  0.0000E+00  0.2000E+01  0.2000E+01
    -38.919  0.0000E+00  0.0000E+00  0.2000E+01  0.2000E+01
    -38.648  0.0000E+00  0.0000E+00  0.2000E+01  0.2000E+01
    -38.378  0.0000E+00  0.0000E+00  0.2000E+01  0.2000E+01
    -38.108  0.0000E+00  0.0000E+00  0.2000E+01  0.2000E+01
    -37.838  0.0000E+00  0.0000E+00  0.2000E+01  0.2000E+01
    -37.567  0.0000E+00  0.0000E+00  0.2000E+01  0.2000E+01
    -37.297  0.0000E+00  0.0000E+00  0.2000E+01  0.2000E+01
    -37.027  0.0000E+00  0.0000E+00  0.2000E+01  0.2000E+01
    -36.757  0.0000E+00  0.0000E+00  0.2000E+01  0.2000E+01
    -36.487  0.0000E+00  0.0000E+00  0.2000E+01  0.2000E+01
    -36.216  0.0000E+00  0.0000E+00  0.2000E+01  0.2000E+01
    -35.946  0.0000E+00  0.0000E+00  0.2000E+01  0.2000E+01
    -35.676  0.0000E+00  0.0000E+00  0.2000E+01  0.2000E+01
    -35.406  0.0000E+00  0.0000E+00  0.2000E+01  0.2000E+01
    -35.136  0.0000E+00  0.0000E+00  0.2000E+01  0.2000E+01
    -34.865  0.0000E+00  0.0000E+00  0.2000E+01  0.2000E+01
    -34.595  0.0000E+00  0.0000E+00  0.2000E+01  0.2000E+01
    -34.325  0.0000E+00  0.0000E+00  0.2000E+01  0.2000E+01
    -34.055  0.0000E+00  0.0000E+00  0.2000E+01  0.2000E+01
    -33.784  0.0000E+00  0.0000E+00  0.2000E+01  0.2000E+01
    -33.514  0.0000E+00  0.0000E+00  0.2000E+01  0.2000E+01
    -33.244  0.0000E+00  0.0000E+00  0.2000E+01  0.2000E+01
    -32.974  0.0000E+00  0.0000E+00  0.2000E+01  0.2000E+01
    -32.704  0.0000E+00  0.0000E+00  0.2000E+01  0.2000E+01
    -32.433  0.0000E+00  0.0000E+00  0.2000E+01  0.2000E+01
    -32.163  0.0000E+00  0.0000E+00  0.2000E+01  0.2000E+01
    -31.893  0.0000E+00  0.0000E+00  0.2000E+01  0.2000E+01
    -31.623  0.0000E+00  0.0000E+00  0.2000E+01  0.2000E+01
    -31.353  0.0000E+00  0.0000E+00  0.2000E+01  0.2000E+01
    -31.082  0.0000E+00  0.0000E+00  0.2000E+01  0.2000E+01
    -30.812  0.0000E+00  0.0000E+00  0.2000E+01  0.2000E+01
    -30.542  0.0000E+00  0.0000E+00  0.2000E+01  0.2000E+01
    -30.272  0.0000E+00  0.0000E+00  0.2000E+01  0.2000E+01
    -30.001  0.0000E+00  0.0000E+00  0.2000E+01  0.2000E+01
    -29.731  0.0000E+00  0.0000E+00  0.2000E+01  0.2000E+01
    -29.461  0.0000E+00  0.0000E+00  0.2000E+01  0.2000E+01
    -29.191  0.1314E-05  0.1205E-05  0.2000E+01  0.2000E+01
    -28.921  0.6534E-03  0.5989E-03  0.2000E+01  0.2000E+01
    -28.650  0.1349E+00  0.1243E+00  0.2037E+01  0.2034E+01
    -28.380  0.3963E+01  0.3868E+01  0.3107E+01  0.3079E+01
    -28.110  0.6143E+01  0.6134E+01  0.4774E+01  0.4743E+01
    -27.840  0.8420E+01  0.8407E+01  0.7069E+01  0.7030E+01
    -27.570  0.3305E+01  0.3437E+01  0.7989E+01  0.7988E+01
    -27.299  0.0000E+00  0.0000E+00  0.8000E+01  0.8000E+01
    -27.029  0.0000E+00  0.0000E+00  0.8000E+01  0.8000E+01
    -26.759  0.0000E+00  0.0000E+00  0.8000E+01  0.8000E+01
    -26.489  0.0000E+00  0.0000E+00  0.8000E+01  0.8000E+01
    -26.218  0.0000E+00  0.0000E+00  0.8000E+01  0.8000E+01
    -25.948  0.0000E+00  0.0000E+00  0.8000E+01  0.8000E+01
    -25.678  0.0000E+00  0.0000E+00  0.8000E+01  0.8000E+01
    -25.408  0.0000E+00  0.0000E+00  0.8000E+01  0.8000E+01
    -25.138  0.0000E+00  0.0000E+00  0.8000E+01  0.8000E+01
    -24.867  0.0000E+00  0.0000E+00  0.8000E+01  0.8000E+01
    -24.597  0.0000E+00  0.0000E+00  0.8000E+01  0.8000E+01
    -24.327  0.0000E+00  0.0000E+00  0.8000E+01  0.8000E+01
    -24.057  0.0000E+00  0.0000E+00  0.8000E+01  0.8000E+01
    -23.787  0.0000E+00  0.0000E+00  0.8000E+01  0.8000E+01
    -23.516  0.0000E+00  0.0000E+00  0.8000E+01  0.8000E+01
    -23.246  0.0000E+00  0.0000E+00  0.8000E+01  0.8000E+01
    -22.976  0.0000E+00  0.0000E+00  0.8000E+01  0.8000E+01
    -22.706  0.0000E+00  0.0000E+00  0.8000E+01  0.8000E+01
    -22.435  0.0000E+00  0.0000E+00  0.8000E+01  0.8000E+01
    -22.165  0.0000E+00  0.0000E+00  0.8000E+01  0.8000E+01
    -21.895  0.0000E+00  0.0000E+00  0.8000E+01  0.8000E+01
    -21.625  0.0000E+00  0.0000E+00  0.8000E+01  0.8000E+01
    -21.355  0.0000E+00  0.0000E+00  0.8000E+01  0.8000E+01
    -21.084  0.0000E+00  0.0000E+00  0.8000E+01  0.8000E+01
    -20.814  0.0000E+00  0.0000E+00  0.8000E+01  0.8000E+01
    -20.544  0.0000E+00  0.0000E+00  0.8000E+01  0.8000E+01
    -20.274  0.0000E+00  0.0000E+00  0.8000E+01  0.8000E+01
    -20.004  0.0000E+00  0.0000E+00  0.8000E+01  0.8000E+01
    -19.733  0.0000E+00  0.0000E+00  0.8000E+01  0.8000E+01
    -19.463  0.0000E+00  0.0000E+00  0.8000E+01  0.8000E+01
    -19.193  0.0000E+00  0.0000E+00  0.8000E+01  0.8000E+01
    -18.923  0.0000E+00  0.0000E+00  0.8000E+01  0.8000E+01
    -18.653  0.0000E+00  0.0000E+00  0.8000E+01  0.8000E+01
    -18.382  0.0000E+00  0.0000E+00  0.8000E+01  0.8000E+01
    -18.112  0.0000E+00  0.0000E+00  0.8000E+01  0.8000E+01
    -17.842  0.0000E+00  0.0000E+00  0.8000E+01  0.8000E+01
    -17.572  0.0000E+00  0.0000E+00  0.8000E+01  0.8000E+01
    -17.301  0.0000E+00  0.0000E+00  0.8000E+01  0.8000E+01
    -17.031  0.0000E+00  0.0000E+00  0.8000E+01  0.8000E+01
    -16.761  0.0000E+00  0.0000E+00  0.8000E+01  0.8000E+01
    -16.491  0.0000E+00  0.0000E+00  0.8000E+01  0.8000E+01
    -16.221  0.0000E+00  0.0000E+00  0.8000E+01  0.8000E+01
    -15.950  0.0000E+00  0.0000E+00  0.8000E+01  0.8000E+01
    -15.680  0.0000E+00  0.0000E+00  0.8000E+01  0.8000E+01
    -15.410  0.0000E+00  0.0000E+00  0.8000E+01  0.8000E+01
    -15.140  0.0000E+00  0.0000E+00  0.8000E+01  0.8000E+01
    -14.870  0.0000E+00  0.0000E+00  0.8000E+01  0.8000E+01
    -14.599  0.0000E+00  0.0000E+00  0.8000E+01  0.8000E+01
    -14.329  0.0000E+00  0.0000E+00  0.8000E+01  0.8000E+01
    -14.059  0.0000E+00  0.0000E+00  0.8000E+01  0.8000E+01
    -13.789  0.0000E+00  0.0000E+00  0.8000E+01  0.8000E+01
    -13.518  0.0000E+00  0.0000E+00  0.8000E+01  0.8000E+01
    -13.248  0.0000E+00  0.0000E+00  0.8000E+01  0.8000E+01
    -12.978  0.0000E+00  0.0000E+00  0.8000E+01  0.8000E+01
    -12.708  0.0000E+00  0.0000E+00  0.8000E+01  0.8000E+01
    -12.438  0.0000E+00  0.0000E+00  0.8000E+01  0.8000E+01
    -12.167  0.0000E+00  0.0000E+00  0.8000E+01  0.8000E+01
    -11.897  0.0000E+00  0.0000E+00  0.8000E+01  0.8000E+01
    -11.627  0.0000E+00  0.0000E+00  0.8000E+01  0.8000E+01
    -11.357  0.0000E+00  0.0000E+00  0.8000E+01  0.8000E+01
    -11.087  0.0000E+00  0.0000E+00  0.8000E+01  0.8000E+01
    -10.816  0.0000E+00  0.0000E+00  0.8000E+01  0.8000E+01
    -10.546  0.0000E+00  0.0000E+00  0.8000E+01  0.8000E+01
    -10.276  0.0000E+00  0.0000E+00  0.8000E+01  0.8000E+01
    -10.006  0.0000E+00  0.0000E+00  0.8000E+01  0.8000E+01
     -9.735  0.0000E+00  0.0000E+00  0.8000E+01  0.8000E+01
     -9.465  0.0000E+00  0.0000E+00  0.8000E+01  0.8000E+01
     -9.195  0.0000E+00  0.0000E+00  0.8000E+01  0.8000E+01
     -8.925  0.0000E+00  0.0000E+00  0.8000E+01  0.8000E+01
     -8.655  0.0000E+00  0.0000E+00  0.8000E+01  0.8000E+01
     -8.384  0.0000E+00  0.0000E+00  0.8000E+01  0.8000E+01
     -8.114  0.0000E+00  0.0000E+00  0.8000E+01  0.8000E+01
     -7.844  0.0000E+00  0.0000E+00  0.8000E+01  0.8000E+01
     -7.574  0.0000E+00  0.0000E+00  0.8000E+01  0.8000E+01
     -7.304  0.0000E+00  0.0000E+00  0.8000E+01  0.8000E+01
     -7.033  0.0000E+00  0.0000E+00  0.8000E+01  0.8000E+01
     -6.763  0.0000E+00  0.0000E+00  0.8000E+01  0.8000E+01
     -6.493  0.0000E+00  0.0000E+00  0.8000E+01  0.8000E+01
     -6.223  0.0000E+00  0.0000E+00  0.8000E+01  0.8000E+01
     -5.952  0.0000E+00  0.0000E+00  0.8000E+01  0.8000E+01
     -5.682  0.0000E+00  0.0000E+00  0.8000E+01  0.8000E+01
     -5.412  0.0000E+00  0.0000E+00  0.8000E+01  0.8000E+01
     -5.142  0.0000E+00  0.0000E+00  0.8000E+01  0.8000E+01
     -4.872  0.0000E+00  0.0000E+00  0.8000E+01  0.8000E+01
     -4.601  0.0000E+00  0.0000E+00  0.8000E+01  0.8000E+01
     -4.331  0.0000E+00  0.0000E+00  0.8000E+01  0.8000E+01
     -4.061  0.0000E+00  0.0000E+00  0.8000E+01  0.8000E+01
     -3.791  0.0000E+00  0.0000E+00  0.8000E+01  0.8000E+01
     -3.521  0.0000E+00  0.0000E+00  0.8000E+01  0.8000E+01
     -3.250  0.0000E+00  0.0000E+00  0.8000E+01  0.8000E+01
     -2.980  0.0000E+00  0.0000E+00  0.8000E+01  0.8000E+01
     -2.710  0.0000E+00  0.0000E+00  0.8000E+01  0.8000E+01
     -2.440  0.0000E+00  0.0000E+00  0.8000E+01  0.8000E+01
     -2.169  0.0000E+00  0.0000E+00  0.8000E+01  0.8000E+01
     -1.899  0.0000E+00  0.0000E+00  0.8000E+01  0.8000E+01
     -1.629  0.0000E+00  0.0000E+00  0.8000E+01  0.8000E+01
     -1.359  0.0000E+00  0.0000E+00  0.8000E+01  0.8000E+01
     -1.089  0.0000E+00  0.0000E+00  0.8000E+01  0.8000E+01
     -0.818  0.0000E+00  0.0000E+00  0.8000E+01  0.8000E+01
     -0.548  0.0000E+00  0.0000E+00  0.8000E+01  0.8000E+01
     -0.278  0.0000E+00  0.0000E+00  0.8000E+01  0.8000E+01
     -0.008  0.0000E+00  0.0000E+00  0.8000E+01  0.8000E+01
      0.262  0.0000E+00  0.0000E+00  0.8000E+01  0.8000E+01
      0.533  0.0000E+00  0.0000E+00  0.8000E+01  0.8000E+01
      0.803  0.0000E+00  0.0000E+00  0.8000E+01  0.8000E+01
      1.073  0.0000E+00  0.0000E+00  0.8000E+01  0.8000E+01
      1.343  0.0000E+00  0.0000E+00  0.8000E+01  0.8000E+01
      1.614  0.0000E+00  0.0000E+00  0.8000E+01  0.8000E+01
      1.884  0.0000E+00  0.0000E+00  0.8000E+01  0.8000E+01
      2.154  0.2682E-08  0.0000E+00  0.8000E+01  0.8000E+01
      2.424  0.1009E-05  0.9461E-06  0.8000E+01  0.8000E+01
      2.694  0.2149E-03  0.2015E-03  0.8000E+01  0.8000E+01
      2.965  0.1092E-01  0.1058E-01  0.8003E+01  0.8003E+01
      3.235  0.3572E-01  0.3562E-01  0.8013E+01  0.8013E+01
      3.505  0.6620E-01  0.6566E-01  0.8031E+01  0.8030E+01
      3.775  0.5478E-01  0.5465E-01  0.8046E+01  0.8045E+01
      4.045  0.1021E+00  0.1021E+00  0.8073E+01  0.8073E+01
      4.316  0.1033E+00  0.1027E+00  0.8101E+01  0.8101E+01
      4.586  0.9103E-01  0.9088E-01  0.8126E+01  0.8126E+01
      4.856  0.1672E+00  0.1672E+00  0.8171E+01  0.8171E+01
      5.126  0.1395E+00  0.1397E+00  0.8210E+01  0.8209E+01
      5.396  0.1820E+00  0.1807E+00  0.8260E+01  0.8259E+01
      5.667  0.2434E+00  0.2419E+00  0.8326E+01  0.8325E+01
      5.937  0.2423E+00  0.2425E+00  0.8392E+01  0.8391E+01
      6.207  0.3892E+00  0.3881E+00  0.8498E+01  0.8496E+01
      6.477  0.7795E+00  0.7751E+00  0.8710E+01  0.8707E+01
      6.748  0.8917E+00  0.8878E+00  0.8954E+01  0.8950E+01
      7.018  0.1158E+01  0.1154E+01  0.9269E+01  0.9264E+01
      7.288  0.1511E+01  0.1517E+01  0.9682E+01  0.9678E+01
      7.558  0.1046E+01  0.1045E+01  0.9971E+01  0.9966E+01
      7.828  0.7133E+00  0.7221E+00  0.1017E+02  0.1017E+02
      8.099  0.8682E+00  0.8534E+00  0.1040E+02  0.1040E+02
      8.369  0.2088E+01  0.2067E+01  0.1097E+02  0.1096E+02
      8.639  0.2112E+01  0.2117E+01  0.1155E+02  0.1154E+02
      8.909  0.1918E+01  0.1913E+01  0.1207E+02  0.1206E+02
      9.179  0.2127E+01  0.2121E+01  0.1266E+02  0.1265E+02
      9.450  0.1921E+01  0.1930E+01  0.1318E+02  0.1318E+02
      9.720  0.1284E+01  0.1296E+01  0.1354E+02  0.1353E+02
      9.990  0.6873E+00  0.6941E+00  0.1373E+02  0.1373E+02
     10.260  0.4528E+00  0.4560E+00  0.1385E+02  0.1385E+02
     10.531  0.6036E+00  0.5995E+00  0.1402E+02  0.1402E+02
     10.801  0.7970E+00  0.7898E+00  0.1424E+02  0.1423E+02
     11.071  0.1327E+01  0.1322E+01  0.1460E+02  0.1459E+02
     11.341  0.1777E+01  0.1769E+01  0.1508E+02  0.1507E+02
     11.611  0.2252E+01  0.2243E+01  0.1570E+02  0.1569E+02
     11.882  0.2646E+01  0.2647E+01  0.1642E+02  0.1641E+02
     12.152  0.3386E+01  0.3385E+01  0.1735E+02  0.1734E+02
     12.422  0.1883E+01  0.1900E+01  0.1787E+02  0.1786E+02
     12.692  0.1343E+01  0.1342E+01  0.1824E+02  0.1823E+02
     12.962  0.1030E+01  0.1036E+01  0.1852E+02  0.1852E+02
     13.233  0.7293E+00  0.7368E+00  0.1872E+02  0.1872E+02
     13.503  0.3934E+00  0.4006E+00  0.1883E+02  0.1883E+02
     13.773  0.4406E+00  0.4346E+00  0.1895E+02  0.1895E+02
     14.043  0.2989E+00  0.3030E+00  0.1904E+02  0.1903E+02
     14.314  0.3538E+00  0.3513E+00  0.1913E+02  0.1913E+02
     14.584  0.4366E+00  0.4369E+00  0.1925E+02  0.1925E+02
     14.854  0.2310E+00  0.2341E+00  0.1932E+02  0.1931E+02
     15.124  0.2498E+00  0.2484E+00  0.1938E+02  0.1938E+02
     15.394  0.3425E+00  0.3446E+00  0.1948E+02  0.1948E+02
     15.665  0.3058E+00  0.3061E+00  0.1956E+02  0.1956E+02
     15.935  0.2093E+00  0.2099E+00  0.1962E+02  0.1962E+02
     16.205  0.1851E+00  0.1830E+00  0.1967E+02  0.1967E+02
     16.475  0.2619E+00  0.2610E+00  0.1974E+02  0.1974E+02
     16.745  0.1777E+00  0.1806E+00  0.1979E+02  0.1979E+02
     17.016  0.1798E+00  0.1780E+00  0.1984E+02  0.1984E+02
     17.286  0.1529E+00  0.1540E+00  0.1988E+02  0.1988E+02
     17.556  0.1066E+00  0.1071E+00  0.1991E+02  0.1991E+02
     17.826  0.9156E-01  0.9140E-01  0.1994E+02  0.1994E+02
     18.097  0.8950E-01  0.8928E-01  0.1996E+02  0.1996E+02
     18.367  0.6135E-01  0.6248E-01  0.1998E+02  0.1998E+02
     18.637  0.7997E-02  0.8136E-02  0.1998E+02  0.1998E+02
     18.907  0.4121E-01  0.4054E-01  0.1999E+02  0.1999E+02
     19.177  0.2264E-01  0.2311E-01  0.2000E+02  0.2000E+02
     19.448  0.6376E-02  0.6632E-02  0.2000E+02  0.2000E+02
     19.718  0.0000E+00  0.0000E+00  0.2000E+02  0.2000E+02
     19.988  0.0000E+00  0.0000E+00  0.2000E+02  0.2000E+02
     20.258  0.0000E+00  0.0000E+00  0.2000E+02  0.2000E+02
     20.528  0.0000E+00  0.0000E+00  0.2000E+02  0.2000E+02
     20.799  0.0000E+00  0.0000E+00  0.2000E+02  0.2000E+02
     21.069  0.0000E+00  0.0000E+00  0.2000E+02  0.2000E+02
     21.339  0.0000E+00  0.0000E+00  0.2000E+02  0.2000E+02
     21.609  0.0000E+00  0.0000E+00  0.2000E+02  0.2000E+02
     21.880  0.0000E+00  0.0000E+00  0.2000E+02  0.2000E+02
     22.150  0.0000E+00  0.0000E+00  0.2000E+02  0.2000E+02
     22.420  0.0000E+00  0.0000E+00  0.2000E+02  0.2000E+02
     22.690  0.0000E+00  0.0000E+00  0.2000E+02  0.2000E+02
     22.960  0.0000E+00  0.0000E+00  0.2000E+02  0.2000E+02
     22.96036710    -58.10367111  301      9.34785369      1.00000000
    -58.104  0.0000E+00  0.0000E+00  0.0000E+00  0.0000E+00  0.0000E+00  0.0000E+00  0.0000E+00  0.0000E+00  0.0000E+00  0.0000E+00  0.0000E+00  0.0000E+00  0.0000E+00  0.0000E+00  0.0000E+00  0.0000E+00  0.0000E+00  0.0000E+00
    -57.833  0.0000E+00  0.0000E+00  0.0000E+00  0.0000E+00  0.0000E+00  0.0000E+00  0.0000E+00  0.0000E+00  0.0000E+00  0.0000E+00  0.0000E+00  0.0000E+00  0.0000E+00  0.0000E+00  0.0000E+00  0.0000E+00  0.0000E+00  0.0000E+00
    -57.563  0.0000E+00  0.0000E+00  0.0000E+00  0.0000E+00  0.0000E+00  0.0000E+00  0.0000E+00  0.0000E+00  0.0000E+00  0.0000E+00  0.0000E+00  0.0000E+00  0.0000E+00  0.0000E+00  0.0000E+00  0.0000E+00  0.0000E+00  0.0000E+00
    -57.293  0.0000E+00  0.0000E+00  0.0000E+00  0.0000E+00  0.0000E+00  0.0000E+00  0.0000E+00  0.0000E+00  0.0000E+00  0.0000E+00  0.0000E+00  0.0000E+00  0.0000E+00  0.0000E+00  0.0000E+00  0.0000E+00  0.0000E+00  0.0000E+00
    -57.023  0.0000E+00  0.0000E+00  0.0000E+00  0.0000E+00  0.0000E+00  0.0000E+00  0.0000E+00  0.0000E+00  0.0000E+00  0.0000E+00  0.0000E+00  0.0000E+00  0.0000E+00  0.0000E+00  0.0000E+00  0.0000E+00  0.0000E+00  0.0000E+00
    -56.753  0.0000E+00  0.0000E+00  0.0000E+00  0.0000E+00  0.0000E+00  0.0000E+00  0.0000E+00  0.0000E+00  0.0000E+00  0.0000E+00  0.0000E+00  0.0000E+00  0.0000E+00  0.0000E+00  0.0000E+00  0.0000E+00  0.0000E+00  0.0000E+00
    -56.482  0.0000E+00  0.0000E+00  0.0000E+00  0.0000E+00  0.0000E+00  0.0000E+00  0.0000E+00  0.0000E+00  0.0000E+00  0.0000E+00  0.0000E+00  0.0000E+00  0.0000E+00  0.0000E+00  0.0000E+00  0.0000E+00  0.0000E+00  0.0000E+00
    -56.212  0.0000E+00  0.0000E+00  0.0000E+00  0.0000E+00  0.0000E+00  0.0000E+00  0.0000E+00  0.0000E+00  0.0000E+00  0.0000E+00  0.0000E+00  0.0000E+00  0.0000E+00  0.0000E+00  0.0000E+00  0.0000E+00  0.0000E+00  0.0000E+00
    -55.942  0.0000E+00  0.0000E+00  0.0000E+00  0.0000E+00  0.0000E+00  0.0000E+00  0.0000E+00  0.0000E+00  0.0000E+00  0.0000E+00  0.0000E+00  0.0000E+00  0.0000E+00  0.0000E+00  0.0000E+00  0.0000E+00  0.0000E+00  0.0000E+00
    -55.672  0.0000E+00  0.0000E+00  0.0000E+00  0.0000E+00  0.0000E+00  0.0000E+00  0.0000E+00  0.0000E+00  0.0000E+00  0.0000E+00  0.0000E+00  0.0000E+00  0.0000E+00  0.0000E+00  0.0000E+00  0.0000E+00  0.0000E+00  0.0000E+00
    -55.402  0.0000E+00  0.0000E+00  0.0000E+00  0.0000E+00  0.0000E+00  0.0000E+00  0.0000E+00  0.0000E+00  0.0000E+00  0.0000E+00  0.0000E+00  0.0000E+00  0.0000E+00  0.0000E+00  0.0000E+00  0.0000E+00  0.0000E+00  0.0000E+00
    -55.131  0.0000E+00  0.0000E+00  0.0000E+00  0.0000E+00  0.0000E+00  0.0000E+00  0.0000E+00  0.0000E+00  0.0000E+00  0.0000E+00  0.0000E+00  0.0000E+00  0.0000E+00  0.0000E+00  0.0000E+00  0.0000E+00  0.0000E+00  0.0000E+00
    -54.861  0.3551E-04  0.3254E-04  0.3850E-09  0.3534E-09  0.3850E-09  0.3534E-09  0.3850E-09  0.3534E-09  0.2471E-09  0.2261E-09  0.2471E-09  0.2261E-09  0.1020E-10  0.9344E-11  0.2471E-09  0.2261E-09  0.1020E-10  0.9344E-11
    -54.591  0.7884E-02  0.7250E-02  0.8536E-07  0.7857E-07  0.8536E-07  0.7857E-07  0.8536E-07  0.7857E-07  0.5489E-07  0.5042E-07  0.5489E-07  0.5042E-07  0.2269E-08  0.2086E-08  0.5489E-07  0.5042E-07  0.2269E-08  0.2086E-08
    -54.321  0.8629E+00  0.8188E+00  0.9183E-05  0.8752E-05  0.9183E-05  0.8752E-05  0.9183E-05  0.8752E-05  0.8400E-05  0.7886E-05  0.8400E-05  0.7886E-05  0.3255E-06  0.3065E-06  0.8400E-05  0.7886E-05  0.3255E-06  0.3065E-06
    -54.050  0.2713E+01  0.2749E+01  0.2200E-04  0.2238E-04  0.2200E-04  0.2238E-04  0.2200E-04  0.2238E-04  0.3217E-04  0.3256E-04  0.3217E-04  0.3256E-04  0.1135E-05  0.1150E-05  0.3217E-04  0.3256E-04  0.1135E-05  0.1150E-05
    -53.780  0.3087E-01  0.3762E-01  0.1908E-06  0.2482E-06  0.1908E-06  0.2482E-06  0.1908E-06  0.2482E-06  0.6012E-07  0.8572E-07  0.6012E-07  0.8572E-07  0.3396E-08  0.4974E-08  0.6012E-07  0.8572E-07  0.3396E-08  0.4974E-08
    -53.510  0.0000E+00  0.0000E+00  0.0000E+00  0.0000E+00  0.0000E+00  0.0000E+00  0.0000E+00  0.0000E+00  0.0000E+00  0.0000E+00  0.0000E+00  0.0000E+00  0.0000E+00  0.0000E+00  0.0000E+00  0.0000E+00  0.0000E+00  0.0000E+00
    -53.240  0.0000E+00  0.0000E+00  0.0000E+00  0.0000E+00  0.0000E+00  0.0000E+00  0.0000E+00  0.0000E+00  0.0000E+00  0.0000E+00  0.0000E+00  0.0000E+00  0.0000E+00  0.0000E+00  0.0000E+00  0.0000E+00  0.0000E+00  0.0000E+00
    -52.970  0.0000E+00  0.0000E+00  0.0000E+00  0.0000E+00  0.0000E+00  0.0000E+00  0.0000E+00  0.0000E+00  0.0000E+00  0.0000E+00  0.0000E+00  0.0000E+00  0.0000E+00  0.0000E+00  0.0000E+00  0.0000E+00  0.0000E+00  0.0000E+00
    -52.699  0.0000E+00  0.0000E+00  0.0000E+00  0.0000E+00  0.0000E+00  0.0000E+00  0.0000E+00  0.0000E+00  0.0000E+00  0.0000E+00  0.0000E+00  0.0000E+00  0.0000E+00  0.0000E+00  0.0000E+00  0.0000E+00  0.0000E+00  0.0000E+00
    -52.429  0.0000E+00  0.0000E+00  0.0000E+00  0.0000E+00  0.0000E+00  0.0000E+00  0.0000E+00  0.0000E+00  0.0000E+00  0.0000E+00  0.0000E+00  0.0000E+00  0.0000E+00  0.0000E+00  0.0000E+00  0.0000E+00  0.0000E+00  0.0000E+00
    -52.159  0.0000E+00  0.0000E+00  0.0000E+00  0.0000E+00  0.0000E+00  0.0000E+00  0.0000E+00  0.0000E+00  0.0000E+00  0.0000E+00  0.0000E+00  0.0000E+00  0.0000E+00  0.0000E+00  0.0000E+00  0.0000E+00  0.0000E+00  0.0000E+00
    -51.889  0.0000E+00  0.0000E+00  0.0000E+00  0.0000E+00  0.0000E+00  0.0000E+00  0.0000E+00  0.0000E+00  0.0000E+00  0.0000E+00  0.0000E+00  0.0000E+00  0.0000E+00  0.0000E+00  0.0000E+00  0.0000E+00  0.0000E+00  0.0000E+00
    -51.619  0.0000E+00  0.0000E+00  0.0000E+00  0.0000E+00  0.0000E+00  0.0000E+00  0.0000E+00  0.0000E+00  0.0000E+00  0.0000E+00  0.0000E+00  0.0000E+00  0.0000E+00  0.0000E+00  0.0000E+00  0.0000E+00  0.0000E+00  0.0000E+00
    -51.348  0.0000E+00  0.0000E+00  0.0000E+00  0.0000E+00  0.0000E+00  0.0000E+00  0.0000E+00  0.0000E+00  0.0000E+00  0.0000E+00  0.0000E+00  0.0000E+00  0.0000E+00  0.0000E+00  0.0000E+00  0.0000E+00  0.0000E+00  0.0000E+00
    -51.078  0.0000E+00  0.0000E+00  0.0000E+00  0.0000E+00  0.0000E+00  0.0000E+00  0.0000E+00  0.0000E+00  0.0000E+00  0.0000E+00  0.0000E+00  0.0000E+00  0.0000E+00  0.0000E+00  0.0000E+00  0.0000E+00  0.0000E+00  0.0000E+00
    -50.808  0.0000E+00  0.0000E+00  0.0000E+00  0.0000E+00  0.0000E+00  0.0000E+00  0.0000E+00  0.0000E+00  0.0000E+00  0.0000E+00  0.0000E+00  0.0000E+00  0.0000E+00  0.0000E+00  0.0000E+00  0.0000E+00  0.0000E+00  0.0000E+00
    -50.538  0.0000E+00  0.0000E+00  0.0000E+00  0.0000E+00  0.0000E+00  0.0000E+00  0.0000E+00  0.0000E+00  0.0000E+00  0.0000E+00  0.0000E+00  0.0000E+00  0.0000E+00  0.0000E+00  0.0000E+00  0.0000E+00  0.0000E+00  0.0000E+00
    -50.267  0.0000E+00  0.0000E+00  0.0000E+00  0.0000E+00  0.0000E+00  0.0000E+00  0.0000E+00  0.0000E+00  0.0000E+00  0.0000E+00  0.0000E+00  0.0000E+00  0.0000E+00  0.0000E+00  0.0000E+00  0.0000E+00  0.0000E+00  0.0000E+00
    -49.997  0.0000E+00  0.0000E+00  0.0000E+00  0.0000E+00  0.0000E+00  0.0000E+00  0.0000E+00  0.0000E+00  0.0000E+00  0.0000E+00  0.0000E+00  0.0000E+00  0.0000E+00  0.0000E+00  0.0000E+00  0.0000E+00  0.0000E+00  0.0000E+00
    -49.727  0.0000E+00  0.0000E+00  0.0000E+00  0.0000E+00  0.0000E+00  0.0000E+00  0.0000E+00  0.0000E+00  0.0000E+00  0.0000E+00  0.0000E+00  0.0000E+00  0.0000E+00  0.0000E+00  0.0000E+00  0.0000E+00  0.0000E+00  0.0000E+00
    -49.457  0.0000E+00  0.0000E+00  0.0000E+00  0.0000E+00  0.0000E+00  0.0000E+00  0.0000E+00  0.0000E+00  0.0000E+00  0.0000E+00  0.0000E+00  0.0000E+00  0.0000E+00  0.0000E+00  0.0000E+00  0.0000E+00  0.0000E+00  0.0000E+00
    -49.187  0.0000E+00  0.0000E+00  0.0000E+00  0.0000E+00  0.0000E+00  0.0000E+00  0.0000E+00  0.0000E+00  0.0000E+00  0.0000E+00  0.0000E+00  0.0000E+00  0.0000E+00  0.0000E+00  0.0000E+00  0.0000E+00  0.0000E+00  0.0000E+00
    -48.916  0.0000E+00  0.0000E+00  0.0000E+00  0.0000E+00  0.0000E+00  0.0000E+00  0.0000E+00  0.0000E+00  0.0000E+00  0.0000E+00  0.0000E+00  0.0000E+00  0.0000E+00  0.0000E+00  0.0000E+00  0.0000E+00  0.0000E+00  0.0000E+00
    -48.646  0.0000E+00  0.0000E+00  0.0000E+00  0.0000E+00  0.0000E+00  0.0000E+00  0.0000E+00  0.0000E+00  0.0000E+00  0.0000E+00  0.0000E+00  0.0000E+00  0.0000E+00  0.0000E+00  0.0000E+00  0.0000E+00  0.0000E+00  0.0000E+00
    -48.376  0.0000E+00  0.0000E+00  0.0000E+00  0.0000E+00  0.0000E+00  0.0000E+00  0.0000E+00  0.0000E+00  0.0000E+00  0.0000E+00  0.0000E+00  0.0000E+00  0.0000E+00  0.0000E+00  0.0000E+00  0.0000E+00  0.0000E+00  0.0000E+00
    -48.106  0.0000E+00  0.0000E+00  0.0000E+00  0.0000E+00  0.0000E+00  0.0000E+00  0.0000E+00  0.0000E+00  0.0000E+00  0.0000E+00  0.0000E+00  0.0000E+00  0.0000E+00  0.0000E+00  0.0000E+00  0.0000E+00  0.0000E+00  0.0000E+00
    -47.836  0.0000E+00  0.0000E+00  0.0000E+00  0.0000E+00  0.0000E+00  0.0000E+00  0.0000E+00  0.0000E+00  0.0000E+00  0.0000E+00  0.0000E+00  0.0000E+00  0.0000E+00  0.0000E+00  0.0000E+00  0.0000E+00  0.0000E+00  0.0000E+00
    -47.565  0.0000E+00  0.0000E+00  0.0000E+00  0.0000E+00  0.0000E+00  0.0000E+00  0.0000E+00  0.0000E+00  0.0000E+00  0.0000E+00  0.0000E+00  0.0000E+00  0.0000E+00  0.0000E+00  0.0000E+00  0.0000E+00  0.0000E+00  0.0000E+00
    -47.295  0.0000E+00  0.0000E+00  0.0000E+00  0.0000E+00  0.0000E+00  0.0000E+00  0.0000E+00  0.0000E+00  0.0000E+00  0.0000E+00  0.0000E+00  0.0000E+00  0.0000E+00  0.0000E+00  0.0000E+00  0.0000E+00  0.0000E+00  0.0000E+00
    -47.025  0.0000E+00  0.0000E+00  0.0000E+00  0.0000E+00  0.0000E+00  0.0000E+00  0.0000E+00  0.0000E+00  0.0000E+00  0.0000E+00  0.0000E+00  0.0000E+00  0.0000E+00  0.0000E+00  0.0000E+00  0.0000E+00  0.0000E+00  0.0000E+00
    -46.755  0.0000E+00  0.0000E+00  0.0000E+00  0.0000E+00  0.0000E+00  0.0000E+00  0.0000E+00  0.0000E+00  0.0000E+00  0.0000E+00  0.0000E+00  0.0000E+00  0.0000E+00  0.0000E+00  0.0000E+00  0.0000E+00  0.0000E+00  0.0000E+00
    -46.484  0.0000E+00  0.0000E+00  0.0000E+00  0.0000E+00  0.0000E+00  0.0000E+00  0.0000E+00  0.0000E+00  0.0000E+00  0.0000E+00  0.0000E+00  0.0000E+00  0.0000E+00  0.0000E+00  0.0000E+00  0.0000E+00  0.0000E+00  0.0000E+00
    -46.214  0.0000E+00  0.0000E+00  0.0000E+00  0.0000E+00  0.0000E+00  0.0000E+00  0.0000E+00  0.0000E+00  0.0000E+00  0.0000E+00  0.0000E+00  0.0000E+00  0.0000E+00  0.0000E+00  0.0000E+00  0.0000E+00  0.0000E+00  0.0000E+00
    -45.944  0.0000E+00  0.0000E+00  0.0000E+00  0.0000E+00  0.0000E+00  0.0000E+00  0.0000E+00  0.0000E+00  0.0000E+00  0.0000E+00  0.0000E+00  0.0000E+00  0.0000E+00  0.0000E+00  0.0000E+00  0.0000E+00  0.0000E+00  0.0000E+00
    -45.674  0.0000E+00  0.0000E+00  0.0000E+00  0.0000E+00  0.0000E+00  0.0000E+00  0.0000E+00  0.0000E+00  0.0000E+00  0.0000E+00  0.0000E+00  0.0000E+00  0.0000E+00  0.0000E+00  0.0000E+00  0.0000E+00  0.0000E+00  0.0000E+00
    -45.404  0.0000E+00  0.0000E+00  0.0000E+00  0.0000E+00  0.0000E+00  0.0000E+00  0.0000E+00  0.0000E+00  0.0000E+00  0.0000E+00  0.0000E+00  0.0000E+00  0.0000E+00  0.0000E+00  0.0000E+00  0.0000E+00  0.0000E+00  0.0000E+00
    -45.133  0.0000E+00  0.0000E+00  0.0000E+00  0.0000E+00  0.0000E+00  0.0000E+00  0.0000E+00  0.0000E+00  0.0000E+00  0.0000E+00  0.0000E+00  0.0000E+00  0.0000E+00  0.0000E+00  0.0000E+00  0.0000E+00  0.0000E+00  0.0000E+00
    -44.863  0.0000E+00  0.0000E+00  0.0000E+00  0.0000E+00  0.0000E+00  0.0000E+00  0.0000E+00  0.0000E+00  0.0000E+00  0.0000E+00  0.0000E+00  0.0000E+00  0.0000E+00  0.0000E+00  0.0000E+00  0.0000E+00  0.0000E+00  0.0000E+00
    -44.593  0.0000E+00  0.0000E+00  0.0000E+00  0.0000E+00  0.0000E+00  0.0000E+00  0.0000E+00  0.0000E+00  0.0000E+00  0.0000E+00  0.0000E+00  0.0000E+00  0.0000E+00  0.0000E+00  0.0000E+00  0.0000E+00  0.0000E+00  0.0000E+00