   2   2   1   0
  0.1743792E+02  0.3267194E-09  0.3267194E-09  0.3267194E-09  0.5000000E-15
  1.000000000000000E-004
  CAR 
 unknown system                          
     18.73678129    -60.90946395  301      6.83431911      1.00000000
    -60.909  0.0000E+00  0.0000E+00  0.0000E+00  0.0000E+00
    -60.644  0.0000E+00  0.0000E+00  0.0000E+00  0.0000E+00
    -60.378  0.0000E+00  0.0000E+00  0.0000E+00  0.0000E+00
    -60.113  0.0000E+00  0.0000E+00  0.0000E+00  0.0000E+00
    -59.848  0.0000E+00  0.0000E+00  0.0000E+00  0.0000E+00
    -59.582  0.0000E+00  0.0000E+00  0.0000E+00  0.0000E+00
    -59.317  0.0000E+00  0.0000E+00  0.0000E+00  0.0000E+00
    -59.051  0.0000E+00  0.0000E+00  0.0000E+00  0.0000E+00
    -58.786  0.0000E+00  0.0000E+00  0.0000E+00  0.0000E+00
    -58.520  0.0000E+00  0.0000E+00  0.0000E+00  0.0000E+00
    -58.255  0.0000E+00  0.0000E+00  0.0000E+00  0.0000E+00
    -57.989  0.0000E+00  0.0000E+00  0.0000E+00  0.0000E+00
    -57.724  0.3754E-03  0.4763E-04  0.9965E-04  0.1265E-04
    -57.458  0.7463E-01  0.9574E-02  0.1991E-01  0.2554E-02
    -57.193  0.4775E+01  0.1487E+01  0.1288E+01  0.3973E+00
    -56.927  0.2662E+01  0.5869E+01  0.1994E+01  0.1956E+01
    -56.662  0.0000E+00  0.0000E+00  0.2000E+01  0.2000E+01
    -56.396  0.0000E+00  0.0000E+00  0.2000E+01  0.2000E+01
    -56.131  0.0000E+00  0.0000E+00  0.2000E+01  0.2000E+01
    -55.865  0.0000E+00  0.0000E+00  0.2000E+01  0.2000E+01
    -55.600  0.0000E+00  0.0000E+00  0.2000E+01  0.2000E+01
    -55.334  0.0000E+00  0.0000E+00  0.2000E+01  0.2000E+01
    -55.069  0.0000E+00  0.0000E+00  0.2000E+01  0.2000E+01
    -54.803  0.0000E+00  0.0000E+00  0.2000E+01  0.2000E+01
    -54.538  0.0000E+00  0.0000E+00  0.2000E+01  0.2000E+01
    -54.272  0.0000E+00  0.0000E+00  0.2000E+01  0.2000E+01
    -54.007  0.0000E+00  0.0000E+00  0.2000E+01  0.2000E+01
    -53.741  0.0000E+00  0.0000E+00  0.2000E+01  0.2000E+01
    -53.476  0.0000E+00  0.0000E+00  0.2000E+01  0.2000E+01
    -53.210  0.0000E+00  0.0000E+00  0.2000E+01  0.2000E+01
    -52.945  0.0000E+00  0.0000E+00  0.2000E+01  0.2000E+01
    -52.679  0.0000E+00  0.0000E+00  0.2000E+01  0.2000E+01
    -52.414  0.0000E+00  0.0000E+00  0.2000E+01  0.2000E+01
    -52.148  0.0000E+00  0.0000E+00  0.2000E+01  0.2000E+01
    -51.883  0.0000E+00  0.0000E+00  0.2000E+01  0.2000E+01
    -51.617  0.0000E+00  0.0000E+00  0.2000E+01  0.2000E+01
    -51.352  0.0000E+00  0.0000E+00  0.2000E+01  0.2000E+01
    -51.086  0.0000E+00  0.0000E+00  0.2000E+01  0.2000E+01
    -50.821  0.0000E+00  0.0000E+00  0.2000E+01  0.2000E+01
    -50.555  0.0000E+00  0.0000E+00  0.2000E+01  0.2000E+01
    -50.290  0.0000E+00  0.0000E+00  0.2000E+01  0.2000E+01
    -50.024  0.0000E+00  0.0000E+00  0.2000E+01  0.2000E+01
    -49.759  0.0000E+00  0.0000E+00  0.2000E+01  0.2000E+01
    -49.494  0.0000E+00  0.0000E+00  0.2000E+01  0.2000E+01
    -49.228  0.0000E+00  0.0000E+00  0.2000E+01  0.2000E+01
    -48.963  0.0000E+00  0.0000E+00  0.2000E+01  0.2000E+01
    -48.697  0.0000E+00  0.0000E+00  0.2000E+01  0.2000E+01
    -48.432  0.0000E+00  0.0000E+00  0.2000E+01  0.2000E+01
    -48.166  0.0000E+00  0.0000E+00  0.2000E+01  0.2000E+01
    -47.901  0.0000E+00  0.0000E+00  0.2000E+01  0.2000E+01
    -47.635  0.0000E+00  0.0000E+00  0.2000E+01  0.2000E+01
    -47.370  0.0000E+00  0.0000E+00  0.2000E+01  0.2000E+01
    -47.104  0.0000E+00  0.0000E+00  0.2000E+01  0.2000E+01
    -46.839  0.0000E+00  0.0000E+00  0.2000E+01  0.2000E+01
    -46.573  0.0000E+00  0.0000E+00  0.2000E+01  0.2000E+01
    -46.308  0.0000E+00  0.0000E+00  0.2000E+01  0.2000E+01
    -46.042  0.0000E+00  0.0000E+00  0.2000E+01  0.2000E+01
    -45.777  0.0000E+00  0.0000E+00  0.2000E+01  0.2000E+01
    -45.511  0.0000E+00  0.0000E+00  0.2000E+01  0.2000E+01
    -45.246  0.0000E+00  0.0000E+00  0.2000E+01  0.2000E+01
    -44.980  0.0000E+00  0.0000E+00  0.2000E+01  0.2000E+01
    -44.715  0.0000E+00  0.0000E+00  0.2000E+01  0.2000E+01
    -44.449  0.0000E+00  0.0000E+00  0.2000E+01  0.2000E+01
    -44.184  0.0000E+00  0.0000E+00  0.2000E+01  0.2000E+01
    -43.918  0.0000E+00  0.0000E+00  0.2000E+01  0.2000E+01
    -43.653  0.0000E+00  0.0000E+00  0.2000E+01  0.2000E+01
    -43.387  0.0000E+00  0.0000E+00  0.2000E+01  0.2000E+01
    -43.122  0.0000E+00  0.0000E+00  0.2000E+01  0.2000E+01
    -42.856  0.0000E+00  0.0000E+00  0.2000E+01  0.2000E+01
    -42.591  0.0000E+00  0.0000E+00  0.2000E+01  0.2000E+01
    -42.325  0.0000E+00  0.0000E+00  0.2000E+01  0.2000E+01
    -42.060  0.0000E+00  0.0000E+00  0.2000E+01  0.2000E+01
    -41.794  0.0000E+00  0.0000E+00  0.2000E+01  0.2000E+01
    -41.529  0.0000E+00  0.0000E+00  0.2000E+01  0.2000E+01
    -41.263  0.0000E+00  0.0000E+00  0.2000E+01  0.2000E+01
    -40.998  0.0000E+00  0.0000E+00  0.2000E+01  0.2000E+01
    -40.732  0.0000E+00  0.0000E+00  0.2000E+01  0.2000E+01
    -40.467  0.0000E+00  0.0000E+00  0.2000E+01  0.2000E+01
    -40.201  0.0000E+00  0.0000E+00  0.2000E+01  0.2000E+01
    -39.936  0.0000E+00  0.0000E+00  0.2000E+01  0.2000E+01
    -39.670  0.0000E+00  0.0000E+00  0.2000E+01  0.2000E+01
    -39.405  0.0000E+00  0.0000E+00  0.2000E+01  0.2000E+01
    -39.139  0.0000E+00  0.0000E+00  0.2000E+01  0.2000E+01
    -38.874  0.0000E+00  0.0000E+00  0.2000E+01  0.2000E+01
    -38.609  0.0000E+00  0.0000E+00  0.2000E+01  0.2000E+01
    -38.343  0.0000E+00  0.0000E+00  0.2000E+01  0.2000E+01
    -38.078  0.0000E+00  0.0000E+00  0.2000E+01  0.2000E+01
    -37.812  0.0000E+00  0.0000E+00  0.2000E+01  0.2000E+01
    -37.547  0.0000E+00  0.0000E+00  0.2000E+01  0.2000E+01
    -37.281  0.0000E+00  0.0000E+00  0.2000E+01  0.2000E+01
    -37.016  0.0000E+00  0.0000E+00  0.2000E+01  0.2000E+01
    -36.750  0.0000E+00  0.0000E+00  0.2000E+01  0.2000E+01
    -36.485  0.0000E+00  0.0000E+00  0.2000E+01  0.2000E+01
    -36.219  0.0000E+00  0.0000E+00  0.2000E+01  0.2000E+01
    -35.954  0.0000E+00  0.0000E+00  0.2000E+01  0.2000E+01
    -35.688  0.0000E+00  0.0000E+00  0.2000E+01  0.2000E+01
    -35.423  0.0000E+00  0.0000E+00  0.2000E+01  0.2000E+01
    -35.157  0.0000E+00  0.0000E+00  0.2000E+01  0.2000E+01
    -34.892  0.0000E+00  0.0000E+00  0.2000E+01  0.2000E+01
    -34.626  0.0000E+00  0.0000E+00  0.2000E+01  0.2000E+01
    -34.361  0.0000E+00  0.0000E+00  0.2000E+01  0.2000E+01
    -34.095  0.0000E+00  0.0000E+00  0.2000E+01  0.2000E+01
    -33.830  0.0000E+00  0.0000E+00  0.2000E+01  0.2000E+01
    -33.564  0.0000E+00  0.0000E+00  0.2000E+01  0.2000E+01
    -33.299  0.0000E+00  0.0000E+00  0.2000E+01  0.2000E+01
    -33.033  0.0000E+00  0.0000E+00  0.2000E+01  0.2000E+01
    -32.768  0.0000E+00  0.0000E+00  0.2000E+01  0.2000E+01
    -32.502  0.0000E+00  0.0000E+00  0.2000E+01  0.2000E+01
    -32.237  0.0000E+00  0.0000E+00  0.2000E+01  0.2000E+01
    -31.971  0.0000E+00  0.0000E+00  0.2000E+01  0.2000E+01
    -31.706  0.2155E-03  0.2505E-04  0.2000E+01  0.2000E+01
    -31.440  0.4408E-01  0.5791E-02  0.2012E+01  0.2002E+01
    -31.175  0.3911E+01  0.9692E+00  0.3050E+01  0.2259E+01
    -30.909  0.1405E+02  0.1119E+02  0.6780E+01  0.5231E+01
    -30.644  0.4401E+01  0.9936E+01  0.7988E+01  0.7912E+01
    -30.378  0.0000E+00  0.7200E-01  0.8000E+01  0.8000E+01
    -30.113  0.0000E+00  0.0000E+00  0.8000E+01  0.8000E+01
    -29.847  0.0000E+00  0.0000E+00  0.8000E+01  0.8000E+01
    -29.582  0.0000E+00  0.0000E+00  0.8000E+01  0.8000E+01
    -29.316  0.0000E+00  0.0000E+00  0.8000E+01  0.8000E+01
    -29.051  0.0000E+00  0.0000E+00  0.8000E+01  0.8000E+01
    -28.785  0.0000E+00  0.0000E+00  0.8000E+01  0.8000E+01
    -28.520  0.0000E+00  0.0000E+00  0.8000E+01  0.8000E+01
    -28.255  0.0000E+00  0.0000E+00  0.8000E+01  0.8000E+01
    -27.989  0.0000E+00  0.0000E+00  0.8000E+01  0.8000E+01
    -27.724  0.0000E+00  0.0000E+00  0.8000E+01  0.8000E+01
    -27.458  0.0000E+00  0.0000E+00  0.8000E+01  0.8000E+01
    -27.193  0.0000E+00  0.0000E+00  0.8000E+01  0.8000E+01
    -26.927  0.0000E+00  0.0000E+00  0.8000E+01  0.8000E+01
    -26.662  0.0000E+00  0.0000E+00  0.8000E+01  0.8000E+01
    -26.396  0.0000E+00  0.0000E+00  0.8000E+01  0.8000E+01
    -26.131  0.0000E+00  0.0000E+00  0.8000E+01  0.8000E+01
    -25.865  0.0000E+00  0.0000E+00  0.8000E+01  0.8000E+01
    -25.600  0.0000E+00  0.0000E+00  0.8000E+01  0.8000E+01
    -25.334  0.0000E+00  0.0000E+00  0.8000E+01  0.8000E+01
    -25.069  0.0000E+00  0.0000E+00  0.8000E+01  0.8000E+01
    -24.803  0.0000E+00  0.0000E+00  0.8000E+01  0.8000E+01
    -24.538  0.0000E+00  0.0000E+00  0.8000E+01  0.8000E+01
    -24.272  0.0000E+00  0.0000E+00  0.8000E+01  0.8000E+01
    -24.007  0.0000E+00  0.0000E+00  0.8000E+01  0.8000E+01
    -23.741  0.0000E+00  0.0000E+00  0.8000E+01  0.8000E+01
    -23.476  0.0000E+00  0.0000E+00  0.8000E+01  0.8000E+01
    -23.210  0.0000E+00  0.0000E+00  0.8000E+01  0.8000E+01
    -22.945  0.0000E+00  0.0000E+00  0.8000E+01  0.8000E+01
    -22.679  0.0000E+00  0.0000E+00  0.8000E+01  0.8000E+01
    -22.414  0.0000E+00  0.0000E+00  0.8000E+01  0.8000E+01
    -22.148  0.0000E+00  0.0000E+00  0.8000E+01  0.8000E+01
    -21.883  0.0000E+00  0.0000E+00  0.8000E+01  0.8000E+01
    -21.617  0.0000E+00  0.0000E+00  0.8000E+01  0.8000E+01
    -21.352  0.0000E+00  0.0000E+00  0.8000E+01  0.8000E+01
    -21.086  0.0000E+00  0.0000E+00  0.8000E+01  0.8000E+01
    -20.821  0.0000E+00  0.0000E+00  0.8000E+01  0.8000E+01
    -20.555  0.0000E+00  0.0000E+00  0.8000E+01  0.8000E+01
    -20.290  0.0000E+00  0.0000E+00  0.8000E+01  0.8000E+01
    -20.024  0.0000E+00  0.0000E+00  0.8000E+01  0.8000E+01
    -19.759  0.0000E+00  0.0000E+00  0.8000E+01  0.8000E+01
    -19.493  0.0000E+00  0.0000E+00  0.8000E+01  0.8000E+01
    -19.228  0.0000E+00  0.0000E+00  0.8000E+01  0.8000E+01
    -18.962  0.0000E+00  0.0000E+00  0.8000E+01  0.8000E+01
    -18.697  0.0000E+00  0.0000E+00  0.8000E+01  0.8000E+01
    -18.431  0.0000E+00  0.0000E+00  0.8000E+01  0.8000E+01
    -18.166  0.0000E+00  0.0000E+00  0.8000E+01  0.8000E+01
    -17.900  0.0000E+00  0.0000E+00  0.8000E+01  0.8000E+01
    -17.635  0.0000E+00  0.0000E+00  0.8000E+01  0.8000E+01
    -17.370  0.0000E+00  0.0000E+00  0.8000E+01  0.8000E+01
    -17.104  0.0000E+00  0.0000E+00  0.8000E+01  0.8000E+01
    -16.839  0.0000E+00  0.0000E+00  0.8000E+01  0.8000E+01
    -16.573  0.0000E+00  0.0000E+00  0.8000E+01  0.8000E+01
    -16.308  0.0000E+00  0.0000E+00  0.8000E+01  0.8000E+01
    -16.042  0.0000E+00  0.0000E+00  0.8000E+01  0.8000E+01
    -15.777  0.0000E+00  0.0000E+00  0.8000E+01  0.8000E+01
    -15.511  0.0000E+00  0.0000E+00  0.8000E+01  0.8000E+01
    -15.246  0.0000E+00  0.0000E+00  0.8000E+01  0.8000E+01
    -14.980  0.0000E+00  0.0000E+00  0.8000E+01  0.8000E+01
    -14.715  0.0000E+00  0.0000E+00  0.8000E+01  0.8000E+01
    -14.449  0.0000E+00  0.0000E+00  0.8000E+01  0.8000E+01
    -14.184  0.0000E+00  0.0000E+00  0.8000E+01  0.8000E+01
    -13.918  0.0000E+00  0.0000E+00  0.8000E+01  0.8000E+01
    -13.653  0.0000E+00  0.0000E+00  0.8000E+01  0.8000E+01
    -13.387  0.0000E+00  0.0000E+00  0.8000E+01  0.8000E+01
    -13.122  0.0000E+00  0.0000E+00  0.8000E+01  0.8000E+01
    -12.856  0.0000E+00  0.0000E+00  0.8000E+01  0.8000E+01
    -12.591  0.0000E+00  0.0000E+00  0.8000E+01  0.8000E+01
    -12.325  0.0000E+00  0.0000E+00  0.8000E+01  0.8000E+01
    -12.060  0.0000E+00  0.0000E+00  0.8000E+01  0.8000E+01
    -11.794  0.0000E+00  0.0000E+00  0.8000E+01  0.8000E+01
    -11.529  0.0000E+00  0.0000E+00  0.8000E+01  0.8000E+01
    -11.263  0.0000E+00  0.0000E+00  0.8000E+01  0.8000E+01
    -10.998  0.0000E+00  0.0000E+00  0.8000E+01  0.8000E+01
    -10.732  0.0000E+00  0.0000E+00  0.8000E+01  0.8000E+01
    -10.467  0.0000E+00  0.0000E+00  0.8000E+01  0.8000E+01
    -10.201  0.0000E+00  0.0000E+00  0.8000E+01  0.8000E+01
     -9.936  0.0000E+00  0.0000E+00  0.8000E+01  0.8000E+01
     -9.670  0.0000E+00  0.0000E+00  0.8000E+01  0.8000E+01
     -9.405  0.0000E+00  0.0000E+00  0.8000E+01  0.8000E+01
     -9.139  0.0000E+00  0.0000E+00  0.8000E+01  0.8000E+01
     -8.874  0.0000E+00  0.0000E+00  0.8000E+01  0.8000E+01
     -8.608  0.0000E+00  0.0000E+00  0.8000E+01  0.8000E+01
     -8.343  0.0000E+00  0.0000E+00  0.8000E+01  0.8000E+01
     -8.077  0.0000E+00  0.0000E+00  0.8000E+01  0.8000E+01
     -7.812  0.0000E+00  0.0000E+00  0.8000E+01  0.8000E+01
     -7.546  0.0000E+00  0.0000E+00  0.8000E+01  0.8000E+01
     -7.281  0.0000E+00  0.0000E+00  0.8000E+01  0.8000E+01
     -7.016  0.0000E+00  0.0000E+00  0.8000E+01  0.8000E+01
     -6.750  0.0000E+00  0.0000E+00  0.8000E+01  0.8000E+01
     -6.485  0.0000E+00  0.0000E+00  0.8000E+01  0.8000E+01
     -6.219  0.0000E+00  0.0000E+00  0.8000E+01  0.8000E+01
     -5.954  0.0000E+00  0.0000E+00  0.8000E+01  0.8000E+01
     -5.688  0.0000E+00  0.0000E+00  0.8000E+01  0.8000E+01
     -5.423  0.0000E+00  0.0000E+00  0.8000E+01  0.8000E+01
     -5.157  0.0000E+00  0.0000E+00  0.8000E+01  0.8000E+01
     -4.892  0.0000E+00  0.0000E+00  0.8000E+01  0.8000E+01
     -4.626  0.0000E+00  0.0000E+00  0.8000E+01  0.8000E+01
     -4.361  0.0000E+00  0.0000E+00  0.8000E+01  0.8000E+01
     -4.095  0.0000E+00  0.0000E+00  0.8000E+01  0.8000E+01
     -3.830  0.0000E+00  0.0000E+00  0.8000E+01  0.8000E+01
     -3.564  0.0000E+00  0.0000E+00  0.8000E+01  0.8000E+01
     -3.299  0.0000E+00  0.0000E+00  0.8000E+01  0.8000E+01
     -3.033  0.0000E+00  0.0000E+00  0.8000E+01  0.8000E+01
     -2.768  0.0000E+00  0.0000E+00  0.8000E+01  0.8000E+01
     -2.502  0.0000E+00  0.0000E+00  0.8000E+01  0.8000E+01
     -2.237  0.0000E+00  0.0000E+00  0.8000E+01  0.8000E+01
     -1.971  0.0000E+00  0.0000E+00  0.8000E+01  0.8000E+01
     -1.706  0.0000E+00  0.0000E+00  0.8000E+01  0.8000E+01
     -1.440  0.0000E+00  0.0000E+00  0.8000E+01  0.8000E+01
     -1.175  0.0000E+00  0.0000E+00  0.8000E+01  0.8000E+01
     -0.909  0.0000E+00  0.0000E+00  0.8000E+01  0.8000E+01
     -0.644  0.0000E+00  0.0000E+00  0.8000E+01  0.8000E+01
     -0.378  0.0000E+00  0.0000E+00  0.8000E+01  0.8000E+01
     -0.113  0.0000E+00  0.0000E+00  0.8000E+01  0.8000E+01
      0.153  0.0000E+00  0.0000E+00  0.8000E+01  0.8000E+01
      0.418  0.3217E-06  0.7436E-07  0.8000E+01  0.8000E+01
      0.684  0.6509E-04  0.1729E-04  0.8000E+01  0.8000E+01
      0.949  0.6533E-02  0.2543E-02  0.8002E+01  0.8001E+01
      1.215  0.3996E-01  0.3278E-01  0.8012E+01  0.8009E+01
      1.480  0.7538E-01  0.6602E-01  0.8033E+01  0.8027E+01
      1.746  0.7934E-01  0.7168E-01  0.8054E+01  0.8046E+01
      2.011  0.1119E+00  0.1150E+00  0.8084E+01  0.8077E+01
      2.277  0.1200E+00  0.1214E+00  0.8116E+01  0.8110E+01
      2.542  0.1616E+00  0.1348E+00  0.8159E+01  0.8146E+01
      2.808  0.1653E+00  0.1775E+00  0.8204E+01  0.8193E+01
      3.073  0.1776E+00  0.1532E+00  0.8251E+01  0.8234E+01
      3.339  0.2437E+00  0.2350E+00  0.8317E+01  0.8297E+01
      3.604  0.2384E+00  0.2413E+00  0.8381E+01  0.8362E+01
      3.869  0.3087E+00  0.2753E+00  0.8463E+01  0.8436E+01
      4.135  0.4114E+00  0.3810E+00  0.8573E+01  0.8538E+01
      4.400  0.5777E+00  0.5105E+00  0.8727E+01  0.8676E+01
      4.666  0.9414E+00  0.8271E+00  0.8978E+01  0.8899E+01
      4.931  0.9978E+00  0.9505E+00  0.9246E+01  0.9154E+01
      5.197  0.1501E+01  0.1428E+01  0.9647E+01  0.9536E+01
      5.462  0.1295E+01  0.1402E+01  0.9995E+01  0.9913E+01
      5.728  0.8371E+00  0.9128E+00  0.1022E+02  0.1016E+02
      5.993  0.1862E+01  0.1161E+01  0.1072E+02  0.1047E+02
      6.259  0.3005E+01  0.2827E+01  0.1152E+02  0.1123E+02
      6.524  0.2770E+01  0.2838E+01  0.1226E+02  0.1199E+02
      6.790  0.2819E+01  0.2833E+01  0.1302E+02  0.1275E+02
      7.055  0.1890E+01  0.2237E+01  0.1353E+02  0.1335E+02
      7.321  0.9335E+00  0.1307E+01  0.1378E+02  0.1371E+02
      7.586  0.6027E+00  0.5818E+00  0.1395E+02  0.1387E+02
      7.852  0.9081E+00  0.7732E+00  0.1419E+02  0.1408E+02
      8.117  0.1742E+01  0.1408E+01  0.1465E+02  0.1445E+02
      8.383  0.2677E+01  0.2399E+01  0.1537E+02  0.1509E+02
      8.648  0.3531E+01  0.3409E+01  0.1632E+02  0.1600E+02
      8.914  0.4534E+01  0.4430E+01  0.1753E+02  0.1719E+02
      9.179  0.2231E+01  0.2782E+01  0.1814E+02  0.1794E+02
      9.445  0.1480E+01  0.1652E+01  0.1854E+02  0.1839E+02
      9.710  0.9166E+00  0.1172E+01  0.1879E+02  0.1870E+02
      9.976  0.4477E+00  0.5411E+00  0.1891E+02  0.1885E+02
     10.241  0.4867E+00  0.5618E+00  0.1904E+02  0.1900E+02
     10.507  0.4470E+00  0.3827E+00  0.1916E+02  0.1911E+02
     10.772  0.4799E+00  0.5081E+00  0.1929E+02  0.1925E+02
     11.038  0.2598E+00  0.3004E+00  0.1936E+02  0.1933E+02
     11.303  0.3940E+00  0.3823E+00  0.1946E+02  0.1943E+02
     11.569  0.3816E+00  0.3818E+00  0.1957E+02  0.1953E+02
     11.834  0.2295E+00  0.3063E+00  0.1963E+02  0.1962E+02
     12.100  0.2405E+00  0.1996E+00  0.1969E+02  0.1967E+02
     12.365  0.2845E+00  0.3072E+00  0.1977E+02  0.1975E+02
     12.631  0.1837E+00  0.1824E+00  0.1982E+02  0.1980E+02
     12.896  0.2090E+00  0.2320E+00  0.1988E+02  0.1986E+02
     13.162  0.1185E+00  0.1406E+00  0.1991E+02  0.1990E+02
     13.427  0.8173E-01  0.7810E-01  0.1993E+02  0.1992E+02
     13.693  0.1156E+00  0.1119E+00  0.1996E+02  0.1995E+02
     13.958  0.6293E-01  0.9455E-01  0.1998E+02  0.1998E+02
     14.223  0.5850E-02  0.6010E-02  0.1998E+02  0.1998E+02
     14.489  0.4119E-01  0.2139E-01  0.1999E+02  0.1999E+02
     14.754  0.2253E-01  0.2570E-01  0.2000E+02  0.1999E+02
     15.020  0.4768E-02  0.1161E-01  0.2000E+02  0.2000E+02
     15.285  0.0000E+00  0.1201E-01  0.2000E+02  0.2000E+02
     15.551  0.0000E+00  0.0000E+00  0.2000E+02  0.2000E+02
     15.816  0.0000E+00  0.0000E+00  0.2000E+02  0.2000E+02
     16.082  0.0000E+00  0.0000E+00  0.2000E+02  0.2000E+02
     16.347  0.0000E+00  0.0000E+00  0.2000E+02  0.2000E+02
     16.613  0.0000E+00  0.0000E+00  0.2000E+02  0.2000E+02
     16.878  0.0000E+00  0.0000E+00  0.2000E+02  0.2000E+02
     17.144  0.0000E+00  0.0000E+00  0.2000E+02  0.2000E+02
     17.409  0.0000E+00  0.0000E+00  0.2000E+02  0.2000E+02
     17.675  0.0000E+00  0.0000E+00  0.2000E+02  0.2000E+02
     17.940  0.0000E+00  0.0000E+00  0.2000E+02  0.2000E+02
     18.206  0.0000E+00  0.0000E+00  0.2000E+02  0.2000E+02
     18.471  0.0000E+00  0.0000E+00  0.2000E+02  0.2000E+02
     18.737  0.0000E+00  0.0000E+00  0.2000E+02  0.2000E+02
     18.73678129    -60.90946395  301      6.83431911      1.00000000
    -60.909  0.0000E+00  0.0000E+00  0.0000E+00  0.0000E+00  0.0000E+00  0.0000E+00  0.0000E+00  0.0000E+00  0.0000E+00  0.0000E+00  0.0000E+00  0.0000E+00  0.0000E+00  0.0000E+00  0.0000E+00  0.0000E+00  0.0000E+00  0.0000E+00
    -60.644  0.0000E+00  0.0000E+00  0.0000E+00  0.0000E+00  0.0000E+00  0.0000E+00  0.0000E+00  0.0000E+00  0.0000E+00  0.0000E+00  0.0000E+00  0.0000E+00  0.0000E+00  0.0000E+00  0.0000E+00  0.0000E+00  0.0000E+00  0.0000E+00
    -60.378  0.0000E+00  0.0000E+00  0.0000E+00  0.0000E+00  0.0000E+00  0.0000E+00  0.0000E+00  0.0000E+00  0.0000E+00  0.0000E+00  0.0000E+00  0.0000E+00  0.0000E+00  0.0000E+00  0.0000E+00  0.0000E+00  0.0000E+00  0.0000E+00
    -60.113  0.0000E+00  0.0000E+00  0.0000E+00  0.0000E+00  0.0000E+00  0.0000E+00  0.0000E+00  0.0000E+00  0.0000E+00  0.0000E+00  0.0000E+00  0.0000E+00  0.0000E+00  0.0000E+00  0.0000E+00  0.0000E+00  0.0000E+00  0.0000E+00
    -59.848  0.0000E+00  0.0000E+00  0.0000E+00  0.0000E+00  0.0000E+00  0.0000E+00  0.0000E+00  0.0000E+00  0.0000E+00  0.0000E+00  0.0000E+00  0.0000E+00  0.0000E+00  0.0000E+00  0.0000E+00  0.0000E+00  0.0000E+00  0.0000E+00
    -59.582  0.0000E+00  0.0000E+00  0.0000E+00  0.0000E+00  0.0000E+00  0.0000E+00  0.0000E+00  0.0000E+00  0.0000E+00  0.0000E+00  0.0000E+00  0.0000E+00  0.0000E+00  0.0000E+00  0.0000E+00  0.0000E+00  0.0000E+00  0.0000E+00
    -59.317  0.0000E+00  0.0000E+00  0.0000E+00  0.0000E+00  0.0000E+00  0.0000E+00  0.0000E+00  0.0000E+00  0.0000E+00  0.0000E+00  0.0000E+00  0.0000E+00  0.0000E+00  0.0000E+00  0.0000E+00  0.0000E+00  0.0000E+00  0.0000E+00
    -59.051  0.0000E+00  0.0000E+00  0.0000E+00  0.0000E+00  0.0000E+00  0.0000E+00  0.0000E+00  0.0000E+00  0.0000E+00  0.0000E+00  0.0000E+00  0.0000E+00  0.0000E+00  0.0000E+00  0.0000E+00  0.0000E+00  0.0000E+00  0.0000E+00
    -58.786  0.0000E+00  0.0000E+00  0.0000E+00  0.0000E+00  0.0000E+00  0.0000E+00  0.0000E+00  0.0000E+00  0.0000E+00  0.0000E+00  0.0000E+00  0.0000E+00  0.0000E+00  0.0000E+00  0.0000E+00  0.0000E+00  0.0000E+00  0.0000E+00
    -58.520  0.0000E+00  0.0000E+00  0.0000E+00  0.0000E+00  0.0000E+00  0.0000E+00  0.0000E+00  0.0000E+00  0.0000E+00  0.0000E+00  0.0000E+00  0.0000E+00  0.0000E+00  0.0000E+00  0.0000E+00  0.0000E+00  0.0000E+00  0.0000E+00
    -58.255  0.0000E+00  0.0000E+00  0.0000E+00  0.0000E+00  0.0000E+00  0.0000E+00  0.0000E+00  0.0000E+00  0.0000E+00  0.0000E+00  0.0000E+00  0.0000E+00  0.0000E+00  0.0000E+00  0.0000E+00  0.0000E+00  0.0000E+00  0.0000E+00
    -57.989  0.0000E+00  0.0000E+00  0.0000E+00  0.0000E+00  0.0000E+00  0.0000E+00  0.0000E+00  0.0000E+00  0.0000E+00  0.0000E+00  0.0000E+00  0.0000E+00  0.0000E+00  0.0000E+00  0.0000E+00  0.0000E+00  0.0000E+00  0.0000E+00
    -57.724  0.1870E-03  0.2373E-04  0.2759E-09  0.3502E-10  0.2759E-09  0.3502E-10  0.2759E-09  0.3502E-10  0.2944E-09  0.3731E-10  0.2944E-09  0.3731E-10  0.7656E-11  0.9794E-12  0.2944E-09  0.3731E-10  0.7656E-11  0.9794E-12
    -57.458  0.3718E-01  0.4769E-02  0.5480E-07  0.7037E-08  0.5480E-07  0.7037E-08  0.5480E-07  0.7037E-08  0.5866E-07  0.7500E-08  0.5866E-07  0.7500E-08  0.1525E-08  0.1969E-09  0.5866E-07  0.7500E-08  0.1525E-08  0.1969E-09
    -57.193  0.2379E+01  0.7407E+00  0.3272E-05  0.1070E-05  0.3272E-05  0.1070E-05  0.3272E-05  0.1070E-05  0.4061E-05  0.1211E-05  0.4061E-05  0.1211E-05  0.1030E-06  0.3147E-07  0.4061E-05  0.1211E-05  0.1030E-06  0.3147E-07
    -56.927  0.1326E+01  0.2925E+01  0.1664E-05  0.3825E-05  0.1664E-05  0.3825E-05  0.1664E-05  0.3825E-05  0.2277E-05  0.5049E-05  0.2277E-05  0.5049E-05  0.5692E-07  0.1280E-06  0.2277E-05  0.5049E-05  0.5692E-07  0.1280E-06
    -56.662  0.0000E+00  0.0000E+00  0.0000E+00  0.0000E+00  0.0000E+00  0.0000E+00  0.0000E+00  0.0000E+00  0.0000E+00  0.0000E+00  0.0000E+00  0.0000E+00  0.0000E+00  0.0000E+00  0.0000E+00  0.0000E+00  0.0000E+00  0.0000E+00
    -56.396  0.0000E+00  0.0000E+00  0.0000E+00  0.0000E+00  0.0000E+00  0.0000E+00  0.0000E+00  0.0000E+00  0.0000E+00  0.0000E+00  0.0000E+00  0.0000E+00  0.0000E+00  0.0000E+00  0.0000E+00  0.0000E+00  0.0000E+00  0.0000E+00
    -56.131  0.0000E+00  0.0000E+00  0.0000E+00  0.0000E+00  0.0000E+00  0.0000E+00  0.0000E+00  0.0000E+00  0.0000E+00  0.0000E+00  0.0000E+00  0.0000E+00  0.0000E+00  0.0000E+00  0.0000E+00  0.0000E+00  0.0000E+00  0.0000E+00
    -55.865  0.0000E+00  0.0000E+00  0.0000E+00  0.0000E+00  0.0000E+00  0.0000E+00  0.0000E+00  0.0000E+00  0.0000E+00  0.0000E+00  0.0000E+00  0.0000E+00  0.0000E+00  0.0000E+00  0.0000E+00  0.0000E+00  0.0000E+00  0.0000E+00
    -55.600  0.0000E+00  0.0000E+00  0.0000E+00  0.0000E+00  0.0000E+00  0.0000E+00  0.0000E+00  0.0000E+00  0.0000E+00  0.0000E+00  0.0000E+00  0.0000E+00  0.0000E+00  0.0000E+00  0.0000E+00  0.0000E+00  0.0000E+00  0.0000E+00
    -55.334  0.0000E+00  0.0000E+00  0.0000E+00  0.0000E+00  0.0000E+00  0.0000E+00  0.0000E+00  0.0000E+00  0.0000E+00  0.0000E+00  0.0000E+00  0.0000E+00  0.0000E+00  0.0000E+00  0.0000E+00  0.0000E+00  0.0000E+00  0.0000E+00
    -55.069  0.0000E+00  0.0000E+00  0.0000E+00  0.0000E+00  0.0000E+00  0.0000E+00  0.0000E+00  0.0000E+00  0.0000E+00  0.0000E+00  0.0000E+00  0.0000E+00  0.0000E+00  0.0000E+00  0.0000E+00  0.0000E+00  0.0000E+00  0.0000E+00
    -54.803  0.0000E+00  0.0000E+00  0.0000E+00  0.0000E+00  0.0000E+00  0.0000E+00  0.0000E+00  0.0000E+00  0.0000E+00  0.0000E+00  0.0000E+00  0.0000E+00  0.0000E+00  0.0000E+00  0.0000E+00  0.0000E+00  0.0000E+00  0.0000E+00
    -54.538  0.0000E+00  0.0000E+00  0.0000E+00  0.0000E+00  0.0000E+00  0.0000E+00  0.0000E+00  0.0000E+00  0.0000E+00  0.0000E+00  0.0000E+00  0.0000E+00  0.0000E+00  0.0000E+00  0.0000E+00  0.0000E+00  0.0000E+00  0.0000E+00
    -54.272  0.0000E+00  0.0000E+00  0.0000E+00  0.0000E+00  0.0000E+00  0.0000E+00  0.0000E+00  0.0000E+00  0.0000E+00  0.0000E+00  0.0000E+00  0.0000E+00  0.0000E+00  0.0000E+00  0.0000E+00  0.0000E+00  0.0000E+00  0.0000E+00
    -54.007  0.0000E+00  0.0000E+00  0.0000E+00  0.0000E+00  0.0000E+00  0.0000E+00  0.0000E+00  0.0000E+00  0.0000E+00  0.0000E+00  0.0000E+00  0.0000E+00  0.0000E+00  0.0000E+00  0.0000E+00  0.0000E+00  0.0000E+00  0.0000E+00
    -53.741  0.0000E+00  0.0000E+00  0.0000E+00  0.0000E+00  0.0000E+00  0.0000E+00  0.0000E+00  0.0000E+00  0.0000E+00  0.0000E+00  0.0000E+00  0.0000E+00  0.0000E+00  0.0000E+00  0.0000E+00  0.0000E+00  0.0000E+00  0.0000E+00
    -53.476  0.0000E+00  0.0000E+00  0.0000E+00  0.0000E+00  0.0000E+00  0.0000E+00  0.0000E+00  0.0000E+00  0.0000E+00  0.0000E+00  0.0000E+00  0.0000E+00  0.0000E+00  0.0000E+00  0.0000E+00  0.0000E+00  0.0000E+00  0.0000E+00
    -53.210  0.0000E+00  0.0000E+00  0.0000E+00  0.0000E+00  0.0000E+00  0.0000E+00  0.0000E+00  0.0000E+00  0.0000E+00  0.0000E+00  0.0000E+00  0.0000E+00  0.0000E+00  0.0000E+00  0.0000E+00  0.0000E+00  0.0000E+00  0.0000E+00
    -52.945  0.0000E+00  0.0000E+00  0.0000E+00  0.0000E+00  0.0000E+00  0.0000E+00  0.0000E+00  0.0000E+00  0.0000E+00  0.0000E+00  0.0000E+00  0.0000E+00  0.0000E+00  0.0000E+00  0.0000E+00  0.0000E+00  0.0000E+00  0.0000E+00
    -52.679  0.0000E+00  0.0000E+00  0.0000E+00  0.0000E+00  0.0000E+00  0.0000E+00  0.0000E+00  0.0000E+00  0.0000E+00  0.0000E+00  0.0000E+00  0.0000E+00  0.0000E+00  0.0000E+00  0.0000E+00  0.0000E+00  0.0000E+00  0.0000E+00
    -52.414  0.0000E+00  0.0000E+00  0.0000E+00  0.0000E+00  0.0000E+00  0.0000E+00  0.0000E+00  0.0000E+00  0.0000E+00  0.0000E+00  0.0000E+00  0.0000E+00  0.0000E+00  0.0000E+00  0.0000E+00  0.0000E+00  0.0000E+00  0.0000E+00
    -52.148  0.0000E+00  0.0000E+00  0.0000E+00  0.0000E+00  0.0000E+00  0.0000E+00  0.0000E+00  0.0000E+00  0.0000E+00  0.0000E+00  0.0000E+00  0.0000E+00  0.0000E+00  0.0000E+00  0.0000E+00  0.0000E+00  0.0000E+00  0.0000E+00
    -51.883  0.0000E+00  0.0000E+00  0.0000E+00  0.0000E+00  0.0000E+00  0.0000E+00  0.0000E+00  0.0000E+00  0.0000E+00  0.0000E+00  0.0000E+00  0.0000E+00  0.0000E+00  0.0000E+00  0.0000E+00  0.0000E+00  0.0000E+00  0.0000E+00
    -51.617  0.0000E+00  0.0000E+00  0.0000E+00  0.0000E+00  0.0000E+00  0.0000E+00  0.0000E+00  0.0000E+00  0.0000E+00  0.0000E+00  0.0000E+00  0.0000E+00  0.0000E+00  0.0000E+00  0.0000E+00  0.0000E+00  0.0000E+00  0.0000E+00
    -51.352  0.0000E+00  0.0000E+00  0.0000E+00  0.0000E+00  0.0000E+00  0.0000E+00  0.0000E+00  0.0000E+00  0.0000E+00  0.0000E+00  0.0000E+00  0.0000E+00  0.0000E+00  0.0000E+00  0.0000E+00  0.0000E+00  0.0000E+00  0.0000E+00
    -51.086  0.0000E+00  0.0000E+00  0.0000E+00  0.0000E+00  0.0000E+00  0.0000E+00  0.0000E+00  0.0000E+00  0.0000E+00  0.0000E+00  0.0000E+00  0.0000E+00  0.0000E+00  0.0000E+00  0.0000E+00  0.0000E+00  0.0000E+00  0.0000E+00
    -50.821  0.0000E+00  0.0000E+00  0.0000E+00  0.0000E+00  0.0000E+00  0.0000E+00  0.0000E+00  0.0000E+00  0.0000E+00  0.0000E+00  0.0000E+00  0.0000E+00  0.0000E+00  0.0000E+00  0.0000E+00  0.0000E+00  0.0000E+00  0.0000E+00
    -50.555  0.0000E+00  0.0000E+00  0.0000E+00  0.0000E+00  0.0000E+00  0.0000E+00  0.0000E+00  0.0000E+00  0.0000E+00  0.0000E+00  0.0000E+00  0.0000E+00  0.0000E+00  0.0000E+00  0.0000E+00  0.0000E+00  0.0000E+00  0.0000E+00
    -50.290  0.0000E+00  0.0000E+00  0.0000E+00  0.0000E+00  0.0000E+00  0.0000E+00  0.0000E+00  0.0000E+00  0.0000E+00  0.0000E+00  0.0000E+00  0.0000E+00  0.0000E+00  0.0000E+00  0.0000E+00  0.0000E+00  0.0000E+00  0.0000E+00
    -50.024  0.0000E+00  0.0000E+00  0.0000E+00  0.0000E+00  0.0000E+00  0.0000E+00  0.0000E+00  0.0000E+00  0.0000E+00  0.0000E+00  0.0000E+00  0.0000E+00  0.0000E+00  0.0000E+00  0.0000E+00  0.0000E+00  0.0000E+00  0.0000E+00
    -49.759  0.0000E+00  0.0000E+00  0.0000E+00  0.0000E+00  0.0000E+00  0.0000E+00  0.0000E+00  0.0000E+00  0.0000E+00  0.0000E+00  0.0000E+00  0.0000E+00  0.0000E+00  0.0000E+00  0.0000E+00  0.0000E+00  0.0000E+00  0.0000E+00
    -49.494  0.0000E+00  0.0000E+00  0.0000E+00  0.0000E+00  0.0000E+00  0.0000E+00  0.0000E+00  0.0000E+00  0.0000E+00  0.0000E+00  0.0000E+00  0.0000E+00  0.0000E+00  0.0000E+00  0.0000E+00  0.0000E+00  0.0000E+00  0.0000E+00
    -49.228  0.0000E+00  0.0000E+00  0.0000E+00  0.0000E+00  0.0000E+00  0.0000E+00  0.0000E+00  0.0000E+00  0.0000E+00  0.0000E+00  0.0000E+00  0.0000E+00  0.0000E+00  0.0000E+00  0.0000E+00  0.0000E+00  0.0000E+00  0.0000E+00
    -48.963  0.0000E+00  0.0000E+00  0.0000E+00  0.0000E+00  0.0000E+00  0.0000E+00  0.0000E+00  0.0000E+00  0.0000E+00  0.0000E+00  0.0000E+00  0.0000E+00  0.0000E+00  0.0000E+00  0.0000E+00  0.0000E+00  0.0000E+00  0.0000E+00
    -48.697  0.0000E+00  0.0000E+00  0.0000E+00  0.0000E+00  0.0000E+00  0.0000E+00  0.0000E+00  0.0000E+00  0.0000E+00  0.0000E+00  0.0000E+00  0.0000E+00  0.0000E+00  0.0000E+00  0.0000E+00  0.0000E+00  0.0000E+00  0.0000E+00
    -48.432  0.0000E+00  0.0000E+00  0.0000E+00  0.0000E+00  0.0000E+00  0.0000E+00  0.0000E+00  0.0000E+00  0.0000E+00  0.0000E+00  0.0000E+00  0.0000E+00  0.0000E+00  0.0000E+00  0.0000E+00  0.0000E+00  0.0000E+00  0.0000E+00
    -48.166  0.0000E+00  0.0000E+00  0.0000E+00  0.0000E+00  0.0000E+00  0.0000E+00  0.0000E+00  0.0000E+00  0.0000E+00  0.0000E+00  0.0000E+00  0.0000E+00  0.0000E+00  0.0000E+00  0.0000E+00  0.0000E+00  0.0000E+00  0.0000E+00
    -47.901  0.0000E+00  0.0000E+00  0.0000E+00  0.0000E+00  0.0000E+00  0.0000E+00  0.0000E+00  0.0000E+00  0.0000E+00  0.0000E+00  0.0000E+00  0.0000E+00  0.0000E+00  0.0000E+00  0.0000E+00  0.0000E+00  0.0000E+00  0.0000E+00
    -47.635  0.0000E+00  0.0000E+00  0.0000E+00  0.0000E+00  0.0000E+00  0.0000E+00  0.0000E+00  0.0000E+00  0.0000E+00  0.0000E+00  0.0000E+00  0.0000E+00  0.0000E+00  0.0000E+00  0.0000E+00  0.0000E+00  0.0000E+00  0.0000E+00