   2   2   1   0
  0.1603735E+02  0.3177271E-09  0.3177271E-09  0.3177271E-09  0.5000000E-15
  1.000000000000000E-004
  CAR 
 unknown system                          
     20.04975041    -59.90772759  301      7.69318734      1.00000000
    -59.908  0.0000E+00  0.0000E+00  0.0000E+00  0.0000E+00
    -59.641  0.0000E+00  0.0000E+00  0.0000E+00  0.0000E+00
    -59.375  0.0000E+00  0.0000E+00  0.0000E+00  0.0000E+00
    -59.108  0.0000E+00  0.0000E+00  0.0000E+00  0.0000E+00
    -58.842  0.0000E+00  0.0000E+00  0.0000E+00  0.0000E+00
    -58.575  0.0000E+00  0.0000E+00  0.0000E+00  0.0000E+00
    -58.309  0.0000E+00  0.0000E+00  0.0000E+00  0.0000E+00
    -58.042  0.0000E+00  0.0000E+00  0.0000E+00  0.0000E+00
    -57.776  0.0000E+00  0.0000E+00  0.0000E+00  0.0000E+00
    -57.509  0.0000E+00  0.0000E+00  0.0000E+00  0.0000E+00
    -57.242  0.0000E+00  0.0000E+00  0.0000E+00  0.0000E+00
    -56.976  0.0000E+00  0.0000E+00  0.0000E+00  0.0000E+00
    -56.709  0.2295E-03  0.1522E-03  0.6116E-04  0.4057E-04
    -56.443  0.4671E-01  0.3108E-01  0.1251E-01  0.8325E-02
    -56.176  0.3813E+01  0.3121E+01  0.1029E+01  0.8402E+00
    -55.910  0.3605E+01  0.4292E+01  0.1989E+01  0.1984E+01
    -55.643  0.0000E+00  0.0000E+00  0.2000E+01  0.2000E+01
    -55.377  0.0000E+00  0.0000E+00  0.2000E+01  0.2000E+01
    -55.110  0.0000E+00  0.0000E+00  0.2000E+01  0.2000E+01
    -54.844  0.0000E+00  0.0000E+00  0.2000E+01  0.2000E+01
    -54.577  0.0000E+00  0.0000E+00  0.2000E+01  0.2000E+01
    -54.311  0.0000E+00  0.0000E+00  0.2000E+01  0.2000E+01
    -54.044  0.0000E+00  0.0000E+00  0.2000E+01  0.2000E+01
    -53.778  0.0000E+00  0.0000E+00  0.2000E+01  0.2000E+01
    -53.511  0.0000E+00  0.0000E+00  0.2000E+01  0.2000E+01
    -53.245  0.0000E+00  0.0000E+00  0.2000E+01  0.2000E+01
    -52.978  0.0000E+00  0.0000E+00  0.2000E+01  0.2000E+01
    -52.712  0.0000E+00  0.0000E+00  0.2000E+01  0.2000E+01
    -52.445  0.0000E+00  0.0000E+00  0.2000E+01  0.2000E+01
    -52.179  0.0000E+00  0.0000E+00  0.2000E+01  0.2000E+01
    -51.912  0.0000E+00  0.0000E+00  0.2000E+01  0.2000E+01
    -51.645  0.0000E+00  0.0000E+00  0.2000E+01  0.2000E+01
    -51.379  0.0000E+00  0.0000E+00  0.2000E+01  0.2000E+01
    -51.112  0.0000E+00  0.0000E+00  0.2000E+01  0.2000E+01
    -50.846  0.0000E+00  0.0000E+00  0.2000E+01  0.2000E+01
    -50.579  0.0000E+00  0.0000E+00  0.2000E+01  0.2000E+01
    -50.313  0.0000E+00  0.0000E+00  0.2000E+01  0.2000E+01
    -50.046  0.0000E+00  0.0000E+00  0.2000E+01  0.2000E+01
    -49.780  0.0000E+00  0.0000E+00  0.2000E+01  0.2000E+01
    -49.513  0.0000E+00  0.0000E+00  0.2000E+01  0.2000E+01
    -49.247  0.0000E+00  0.0000E+00  0.2000E+01  0.2000E+01
    -48.980  0.0000E+00  0.0000E+00  0.2000E+01  0.2000E+01
    -48.714  0.0000E+00  0.0000E+00  0.2000E+01  0.2000E+01
    -48.447  0.0000E+00  0.0000E+00  0.2000E+01  0.2000E+01
    -48.181  0.0000E+00  0.0000E+00  0.2000E+01  0.2000E+01
    -47.914  0.0000E+00  0.0000E+00  0.2000E+01  0.2000E+01
    -47.648  0.0000E+00  0.0000E+00  0.2000E+01  0.2000E+01
    -47.381  0.0000E+00  0.0000E+00  0.2000E+01  0.2000E+01
    -47.115  0.0000E+00  0.0000E+00  0.2000E+01  0.2000E+01
    -46.848  0.0000E+00  0.0000E+00  0.2000E+01  0.2000E+01
    -46.581  0.0000E+00  0.0000E+00  0.2000E+01  0.2000E+01
    -46.315  0.0000E+00  0.0000E+00  0.2000E+01  0.2000E+01
    -46.048  0.0000E+00  0.0000E+00  0.2000E+01  0.2000E+01
    -45.782  0.0000E+00  0.0000E+00  0.2000E+01  0.2000E+01
    -45.515  0.0000E+00  0.0000E+00  0.2000E+01  0.2000E+01
    -45.249  0.0000E+00  0.0000E+00  0.2000E+01  0.2000E+01
    -44.982  0.0000E+00  0.0000E+00  0.2000E+01  0.2000E+01
    -44.716  0.0000E+00  0.0000E+00  0.2000E+01  0.2000E+01
    -44.449  0.0000E+00  0.0000E+00  0.2000E+01  0.2000E+01
    -44.183  0.0000E+00  0.0000E+00  0.2000E+01  0.2000E+01
    -43.916  0.0000E+00  0.0000E+00  0.2000E+01  0.2000E+01
    -43.650  0.0000E+00  0.0000E+00  0.2000E+01  0.2000E+01
    -43.383  0.0000E+00  0.0000E+00  0.2000E+01  0.2000E+01
    -43.117  0.0000E+00  0.0000E+00  0.2000E+01  0.2000E+01
    -42.850  0.0000E+00  0.0000E+00  0.2000E+01  0.2000E+01
    -42.584  0.0000E+00  0.0000E+00  0.2000E+01  0.2000E+01
    -42.317  0.0000E+00  0.0000E+00  0.2000E+01  0.2000E+01
    -42.051  0.0000E+00  0.0000E+00  0.2000E+01  0.2000E+01
    -41.784  0.0000E+00  0.0000E+00  0.2000E+01  0.2000E+01
    -41.518  0.0000E+00  0.0000E+00  0.2000E+01  0.2000E+01
    -41.251  0.0000E+00  0.0000E+00  0.2000E+01  0.2000E+01
    -40.984  0.0000E+00  0.0000E+00  0.2000E+01  0.2000E+01
    -40.718  0.0000E+00  0.0000E+00  0.2000E+01  0.2000E+01
    -40.451  0.0000E+00  0.0000E+00  0.2000E+01  0.2000E+01
    -40.185  0.0000E+00  0.0000E+00  0.2000E+01  0.2000E+01
    -39.918  0.0000E+00  0.0000E+00  0.2000E+01  0.2000E+01
    -39.652  0.0000E+00  0.0000E+00  0.2000E+01  0.2000E+01
    -39.385  0.0000E+00  0.0000E+00  0.2000E+01  0.2000E+01
    -39.119  0.0000E+00  0.0000E+00  0.2000E+01  0.2000E+01
    -38.852  0.0000E+00  0.0000E+00  0.2000E+01  0.2000E+01
    -38.586  0.0000E+00  0.0000E+00  0.2000E+01  0.2000E+01
    -38.319  0.0000E+00  0.0000E+00  0.2000E+01  0.2000E+01
    -38.053  0.0000E+00  0.0000E+00  0.2000E+01  0.2000E+01
    -37.786  0.0000E+00  0.0000E+00  0.2000E+01  0.2000E+01
    -37.520  0.0000E+00  0.0000E+00  0.2000E+01  0.2000E+01
    -37.253  0.0000E+00  0.0000E+00  0.2000E+01  0.2000E+01
    -36.987  0.0000E+00  0.0000E+00  0.2000E+01  0.2000E+01
    -36.720  0.0000E+00  0.0000E+00  0.2000E+01  0.2000E+01
    -36.454  0.0000E+00  0.0000E+00  0.2000E+01  0.2000E+01
    -36.187  0.0000E+00  0.0000E+00  0.2000E+01  0.2000E+01
    -35.920  0.0000E+00  0.0000E+00  0.2000E+01  0.2000E+01
    -35.654  0.0000E+00  0.0000E+00  0.2000E+01  0.2000E+01
    -35.387  0.0000E+00  0.0000E+00  0.2000E+01  0.2000E+01
    -35.121  0.0000E+00  0.0000E+00  0.2000E+01  0.2000E+01
    -34.854  0.0000E+00  0.0000E+00  0.2000E+01  0.2000E+01
    -34.588  0.0000E+00  0.0000E+00  0.2000E+01  0.2000E+01
    -34.321  0.0000E+00  0.0000E+00  0.2000E+01  0.2000E+01
    -34.055  0.0000E+00  0.0000E+00  0.2000E+01  0.2000E+01
    -33.788  0.0000E+00  0.0000E+00  0.2000E+01  0.2000E+01
    -33.522  0.0000E+00  0.0000E+00  0.2000E+01  0.2000E+01
    -33.255  0.0000E+00  0.0000E+00  0.2000E+01  0.2000E+01
    -32.989  0.0000E+00  0.0000E+00  0.2000E+01  0.2000E+01
    -32.722  0.0000E+00  0.0000E+00  0.2000E+01  0.2000E+01
    -32.456  0.0000E+00  0.0000E+00  0.2000E+01  0.2000E+01
    -32.189  0.0000E+00  0.0000E+00  0.2000E+01  0.2000E+01
    -31.923  0.0000E+00  0.0000E+00  0.2000E+01  0.2000E+01
    -31.656  0.0000E+00  0.0000E+00  0.2000E+01  0.2000E+01
    -31.390  0.0000E+00  0.0000E+00  0.2000E+01  0.2000E+01
    -31.123  0.0000E+00  0.0000E+00  0.2000E+01  0.2000E+01
    -30.857  0.1345E-04  0.7466E-05  0.2000E+01  0.2000E+01
    -30.590  0.3485E-02  0.2328E-02  0.2001E+01  0.2001E+01
    -30.323  0.6104E+00  0.4283E+00  0.2164E+01  0.2115E+01
    -30.057  0.7898E+01  0.7306E+01  0.4269E+01  0.4062E+01
    -29.790  0.1159E+02  0.1170E+02  0.7391E+01  0.7204E+01
    -29.524  0.2108E+01  0.2802E+01  0.7996E+01  0.7994E+01
    -29.257  0.0000E+00  0.0000E+00  0.8000E+01  0.8000E+01
    -28.991  0.0000E+00  0.0000E+00  0.8000E+01  0.8000E+01
    -28.724  0.0000E+00  0.0000E+00  0.8000E+01  0.8000E+01
    -28.458  0.0000E+00  0.0000E+00  0.8000E+01  0.8000E+01
    -28.191  0.0000E+00  0.0000E+00  0.8000E+01  0.8000E+01
    -27.925  0.0000E+00  0.0000E+00  0.8000E+01  0.8000E+01
    -27.658  0.0000E+00  0.0000E+00  0.8000E+01  0.8000E+01
    -27.392  0.0000E+00  0.0000E+00  0.8000E+01  0.8000E+01
    -27.125  0.0000E+00  0.0000E+00  0.8000E+01  0.8000E+01
    -26.859  0.0000E+00  0.0000E+00  0.8000E+01  0.8000E+01
    -26.592  0.0000E+00  0.0000E+00  0.8000E+01  0.8000E+01
    -26.326  0.0000E+00  0.0000E+00  0.8000E+01  0.8000E+01
    -26.059  0.0000E+00  0.0000E+00  0.8000E+01  0.8000E+01
    -25.793  0.0000E+00  0.0000E+00  0.8000E+01  0.8000E+01
    -25.526  0.0000E+00  0.0000E+00  0.8000E+01  0.8000E+01
    -25.259  0.0000E+00  0.0000E+00  0.8000E+01  0.8000E+01
    -24.993  0.0000E+00  0.0000E+00  0.8000E+01  0.8000E+01
    -24.726  0.0000E+00  0.0000E+00  0.8000E+01  0.8000E+01
    -24.460  0.0000E+00  0.0000E+00  0.8000E+01  0.8000E+01
    -24.193  0.0000E+00  0.0000E+00  0.8000E+01  0.8000E+01
    -23.927  0.0000E+00  0.0000E+00  0.8000E+01  0.8000E+01
    -23.660  0.0000E+00  0.0000E+00  0.8000E+01  0.8000E+01
    -23.394  0.0000E+00  0.0000E+00  0.8000E+01  0.8000E+01
    -23.127  0.0000E+00  0.0000E+00  0.8000E+01  0.8000E+01
    -22.861  0.0000E+00  0.0000E+00  0.8000E+01  0.8000E+01
    -22.594  0.0000E+00  0.0000E+00  0.8000E+01  0.8000E+01
    -22.328  0.0000E+00  0.0000E+00  0.8000E+01  0.8000E+01
    -22.061  0.0000E+00  0.0000E+00  0.8000E+01  0.8000E+01
    -21.795  0.0000E+00  0.0000E+00  0.8000E+01  0.8000E+01
    -21.528  0.0000E+00  0.0000E+00  0.8000E+01  0.8000E+01
    -21.262  0.0000E+00  0.0000E+00  0.8000E+01  0.8000E+01
    -20.995  0.0000E+00  0.0000E+00  0.8000E+01  0.8000E+01
    -20.729  0.0000E+00  0.0000E+00  0.8000E+01  0.8000E+01
    -20.462  0.0000E+00  0.0000E+00  0.8000E+01  0.8000E+01
    -20.196  0.0000E+00  0.0000E+00  0.8000E+01  0.8000E+01
    -19.929  0.0000E+00  0.0000E+00  0.8000E+01  0.8000E+01
    -19.662  0.0000E+00  0.0000E+00  0.8000E+01  0.8000E+01
    -19.396  0.0000E+00  0.0000E+00  0.8000E+01  0.8000E+01
    -19.129  0.0000E+00  0.0000E+00  0.8000E+01  0.8000E+01
    -18.863  0.0000E+00  0.0000E+00  0.8000E+01  0.8000E+01
    -18.596  0.0000E+00  0.0000E+00  0.8000E+01  0.8000E+01
    -18.330  0.0000E+00  0.0000E+00  0.8000E+01  0.8000E+01
    -18.063  0.0000E+00  0.0000E+00  0.8000E+01  0.8000E+01
    -17.797  0.0000E+00  0.0000E+00  0.8000E+01  0.8000E+01
    -17.530  0.0000E+00  0.0000E+00  0.8000E+01  0.8000E+01
    -17.264  0.0000E+00  0.0000E+00  0.8000E+01  0.8000E+01
    -16.997  0.0000E+00  0.0000E+00  0.8000E+01  0.8000E+01
    -16.731  0.0000E+00  0.0000E+00  0.8000E+01  0.8000E+01
    -16.464  0.0000E+00  0.0000E+00  0.8000E+01  0.8000E+01
    -16.198  0.0000E+00  0.0000E+00  0.8000E+01  0.8000E+01
    -15.931  0.0000E+00  0.0000E+00  0.8000E+01  0.8000E+01
    -15.665  0.0000E+00  0.0000E+00  0.8000E+01  0.8000E+01
    -15.398  0.0000E+00  0.0000E+00  0.8000E+01  0.8000E+01
    -15.132  0.0000E+00  0.0000E+00  0.8000E+01  0.8000E+01
    -14.865  0.0000E+00  0.0000E+00  0.8000E+01  0.8000E+01
    -14.598  0.0000E+00  0.0000E+00  0.8000E+01  0.8000E+01
    -14.332  0.0000E+00  0.0000E+00  0.8000E+01  0.8000E+01
    -14.065  0.0000E+00  0.0000E+00  0.8000E+01  0.8000E+01
    -13.799  0.0000E+00  0.0000E+00  0.8000E+01  0.8000E+01
    -13.532  0.0000E+00  0.0000E+00  0.8000E+01  0.8000E+01
    -13.266  0.0000E+00  0.0000E+00  0.8000E+01  0.8000E+01
    -12.999  0.0000E+00  0.0000E+00  0.8000E+01  0.8000E+01
    -12.733  0.0000E+00  0.0000E+00  0.8000E+01  0.8000E+01
    -12.466  0.0000E+00  0.0000E+00  0.8000E+01  0.8000E+01
    -12.200  0.0000E+00  0.0000E+00  0.8000E+01  0.8000E+01
    -11.933  0.0000E+00  0.0000E+00  0.8000E+01  0.8000E+01
    -11.667  0.0000E+00  0.0000E+00  0.8000E+01  0.8000E+01
    -11.400  0.0000E+00  0.0000E+00  0.8000E+01  0.8000E+01
    -11.134  0.0000E+00  0.0000E+00  0.8000E+01  0.8000E+01
    -10.867  0.0000E+00  0.0000E+00  0.8000E+01  0.8000E+01
    -10.601  0.0000E+00  0.0000E+00  0.8000E+01  0.8000E+01
    -10.334  0.0000E+00  0.0000E+00  0.8000E+01  0.8000E+01
    -10.068  0.0000E+00  0.0000E+00  0.8000E+01  0.8000E+01
     -9.801  0.0000E+00  0.0000E+00  0.8000E+01  0.8000E+01
     -9.535  0.0000E+00  0.0000E+00  0.8000E+01  0.8000E+01
     -9.268  0.0000E+00  0.0000E+00  0.8000E+01  0.8000E+01
     -9.001  0.0000E+00  0.0000E+00  0.8000E+01  0.8000E+01
     -8.735  0.0000E+00  0.0000E+00  0.8000E+01  0.8000E+01
     -8.468  0.0000E+00  0.0000E+00  0.8000E+01  0.8000E+01
     -8.202  0.0000E+00  0.0000E+00  0.8000E+01  0.8000E+01
     -7.935  0.0000E+00  0.0000E+00  0.8000E+01  0.8000E+01
     -7.669  0.0000E+00  0.0000E+00  0.8000E+01  0.8000E+01
     -7.402  0.0000E+00  0.0000E+00  0.8000E+01  0.8000E+01
     -7.136  0.0000E+00  0.0000E+00  0.8000E+01  0.8000E+01
     -6.869  0.0000E+00  0.0000E+00  0.8000E+01  0.8000E+01
     -6.603  0.0000E+00  0.0000E+00  0.8000E+01  0.8000E+01
     -6.336  0.0000E+00  0.0000E+00  0.8000E+01  0.8000E+01
     -6.070  0.0000E+00  0.0000E+00  0.8000E+01  0.8000E+01
     -5.803  0.0000E+00  0.0000E+00  0.8000E+01  0.8000E+01
     -5.537  0.0000E+00  0.0000E+00  0.8000E+01  0.8000E+01
     -5.270  0.0000E+00  0.0000E+00  0.8000E+01  0.8000E+01
     -5.004  0.0000E+00  0.0000E+00  0.8000E+01  0.8000E+01
     -4.737  0.0000E+00  0.0000E+00  0.8000E+01  0.8000E+01
     -4.471  0.0000E+00  0.0000E+00  0.8000E+01  0.8000E+01
     -4.204  0.0000E+00  0.0000E+00  0.8000E+01  0.8000E+01
     -3.937  0.0000E+00  0.0000E+00  0.8000E+01  0.8000E+01
     -3.671  0.0000E+00  0.0000E+00  0.8000E+01  0.8000E+01
     -3.404  0.0000E+00  0.0000E+00  0.8000E+01  0.8000E+01
     -3.138  0.0000E+00  0.0000E+00  0.8000E+01  0.8000E+01
     -2.871  0.0000E+00  0.0000E+00  0.8000E+01  0.8000E+01
     -2.605  0.0000E+00  0.0000E+00  0.8000E+01  0.8000E+01
     -2.338  0.0000E+00  0.0000E+00  0.8000E+01  0.8000E+01
     -2.072  0.0000E+00  0.0000E+00  0.8000E+01  0.8000E+01
     -1.805  0.0000E+00  0.0000E+00  0.8000E+01  0.8000E+01
     -1.539  0.0000E+00  0.0000E+00  0.8000E+01  0.8000E+01
     -1.272  0.0000E+00  0.0000E+00  0.8000E+01  0.8000E+01
     -1.006  0.0000E+00  0.0000E+00  0.8000E+01  0.8000E+01
     -0.739  0.0000E+00  0.0000E+00  0.8000E+01  0.8000E+01
     -0.473  0.0000E+00  0.0000E+00  0.8000E+01  0.8000E+01
     -0.206  0.0000E+00  0.0000E+00  0.8000E+01  0.8000E+01
      0.060  0.0000E+00  0.0000E+00  0.8000E+01  0.8000E+01
      0.327  0.0000E+00  0.0000E+00  0.8000E+01  0.8000E+01
      0.593  0.0000E+00  0.0000E+00  0.8000E+01  0.8000E+01
      0.860  0.0000E+00  0.0000E+00  0.8000E+01  0.8000E+01
      1.126  0.9547E-06  0.7136E-06  0.8000E+01  0.8000E+01
      1.393  0.1922E-03  0.1448E-03  0.8000E+01  0.8000E+01
      1.660  0.1151E-01  0.9921E-02  0.8003E+01  0.8003E+01
      1.926  0.4081E-01  0.3993E-01  0.8014E+01  0.8013E+01
      2.193  0.7542E-01  0.7436E-01  0.8034E+01  0.8033E+01
      2.459  0.7368E-01  0.7011E-01  0.8054E+01  0.8053E+01
      2.726  0.1055E+00  0.1067E+00  0.8083E+01  0.8081E+01
      2.992  0.1168E+00  0.1178E+00  0.8114E+01  0.8113E+01
      3.259  0.1451E+00  0.1388E+00  0.8153E+01  0.8150E+01
      3.525  0.1673E+00  0.1686E+00  0.8197E+01  0.8195E+01
      3.792  0.1507E+00  0.1486E+00  0.8238E+01  0.8235E+01
      4.058  0.2272E+00  0.2247E+00  0.8299E+01  0.8295E+01
      4.325  0.2439E+00  0.2448E+00  0.8364E+01  0.8361E+01
      4.591  0.2760E+00  0.2679E+00  0.8439E+01  0.8433E+01
      4.858  0.4028E+00  0.3950E+00  0.8547E+01  0.8540E+01
      5.124  0.6443E+00  0.6283E+00  0.8720E+01  0.8709E+01
      5.391  0.8972E+00  0.8711E+00  0.8962E+01  0.8945E+01
      5.657  0.1058E+01  0.1049E+01  0.9246E+01  0.9225E+01
      5.924  0.1519E+01  0.1512E+01  0.9653E+01  0.9631E+01
      6.190  0.1213E+01  0.1228E+01  0.9981E+01  0.9964E+01
      6.457  0.7733E+00  0.7957E+00  0.1019E+02  0.1018E+02
      6.724  0.1276E+01  0.1169E+01  0.1053E+02  0.1049E+02
      6.990  0.2660E+01  0.2610E+01  0.1125E+02  0.1119E+02
      7.257  0.2488E+01  0.2515E+01  0.1192E+02  0.1187E+02
      7.523  0.2515E+01  0.2495E+01  0.1260E+02  0.1255E+02
      7.790  0.2311E+01  0.2356E+01  0.1322E+02  0.1318E+02
      8.056  0.1389E+01  0.1462E+01  0.1360E+02  0.1358E+02
      8.323  0.7208E+00  0.7636E+00  0.1380E+02  0.1379E+02
      8.589  0.5623E+00  0.5377E+00  0.1395E+02  0.1394E+02
      8.856  0.8106E+00  0.7926E+00  0.1417E+02  0.1415E+02
      9.122  0.1493E+01  0.1439E+01  0.1457E+02  0.1453E+02
      9.389  0.2202E+01  0.2167E+01  0.1516E+02  0.1512E+02
      9.655  0.2987E+01  0.2950E+01  0.1596E+02  0.1591E+02
      9.922  0.3765E+01  0.3712E+01  0.1697E+02  0.1691E+02
     10.188  0.3102E+01  0.3238E+01  0.1781E+02  0.1778E+02
     10.455  0.1633E+01  0.1630E+01  0.1826E+02  0.1823E+02
     10.721  0.1183E+01  0.1217E+01  0.1858E+02  0.1856E+02
     10.988  0.7787E+00  0.8275E+00  0.1880E+02  0.1879E+02
     11.254  0.3937E+00  0.3834E+00  0.1890E+02  0.1889E+02
     11.521  0.4618E+00  0.4860E+00  0.1903E+02  0.1902E+02
     11.787  0.3886E+00  0.3747E+00  0.1913E+02  0.1912E+02
     12.054  0.4811E+00  0.4819E+00  0.1926E+02  0.1925E+02
     12.321  0.2469E+00  0.2597E+00  0.1933E+02  0.1932E+02
     12.587  0.3637E+00  0.3516E+00  0.1943E+02  0.1942E+02
     12.854  0.3567E+00  0.3568E+00  0.1952E+02  0.1952E+02
     13.120  0.3036E+00  0.3144E+00  0.1960E+02  0.1960E+02
     13.387  0.1797E+00  0.1793E+00  0.1965E+02  0.1965E+02
     13.653  0.2805E+00  0.2762E+00  0.1973E+02  0.1972E+02
     13.920  0.2193E+00  0.2311E+00  0.1979E+02  0.1979E+02
     14.186  0.2027E+00  0.1953E+00  0.1984E+02  0.1984E+02
     14.453  0.1614E+00  0.1693E+00  0.1989E+02  0.1988E+02
     14.719  0.1044E+00  0.1087E+00  0.1991E+02  0.1991E+02
     14.986  0.9024E-01  0.8728E-01  0.1994E+02  0.1994E+02
     15.252  0.1062E+00  0.1080E+00  0.1997E+02  0.1997E+02
     15.519  0.4383E-01  0.4974E-01  0.1998E+02  0.1998E+02
     15.785  0.7104E-02  0.5815E-02  0.1998E+02  0.1998E+02
     16.052  0.4567E-01  0.4462E-01  0.1999E+02  0.1999E+02
     16.318  0.1759E-01  0.1925E-01  0.2000E+02  0.2000E+02
     16.585  0.3309E-02  0.4063E-02  0.2000E+02  0.2000E+02
     16.851  0.0000E+00  0.0000E+00  0.2000E+02  0.2000E+02
     17.118  0.0000E+00  0.0000E+00  0.2000E+02  0.2000E+02
     17.385  0.0000E+00  0.0000E+00  0.2000E+02  0.2000E+02
     17.651  0.0000E+00  0.0000E+00  0.2000E+02  0.2000E+02
     17.918  0.0000E+00  0.0000E+00  0.2000E+02  0.2000E+02
     18.184  0.0000E+00  0.0000E+00  0.2000E+02  0.2000E+02
     18.451  0.0000E+00  0.0000E+00  0.2000E+02  0.2000E+02
     18.717  0.0000E+00  0.0000E+00  0.2000E+02  0.2000E+02
     18.984  0.0000E+00  0.0000E+00  0.2000E+02  0.2000E+02
     19.250  0.0000E+00  0.0000E+00  0.2000E+02  0.2000E+02
     19.517  0.0000E+00  0.0000E+00  0.2000E+02  0.2000E+02
     19.783  0.0000E+00  0.0000E+00  0.2000E+02  0.2000E+02
     20.050  0.0000E+00  0.0000E+00  0.2000E+02  0.2000E+02
     20.04975041    -59.90772759  301      7.69318734      1.00000000
    -59.908  0.0000E+00  0.0000E+00  0.0000E+00  0.0000E+00  0.0000E+00  0.0000E+00  0.0000E+00  0.0000E+00  0.0000E+00  0.0000E+00  0.0000E+00  0.0000E+00  0.0000E+00  0.0000E+00  0.0000E+00  0.0000E+00  0.0000E+00  0.0000E+00
    -59.641  0.0000E+00  0.0000E+00  0.0000E+00  0.0000E+00  0.0000E+00  0.0000E+00  0.0000E+00  0.0000E+00  0.0000E+00  0.0000E+00  0.0000E+00  0.0000E+00  0.0000E+00  0.0000E+00  0.0000E+00  0.0000E+00  0.0000E+00  0.0000E+00
    -59.375  0.0000E+00  0.0000E+00  0.0000E+00  0.0000E+00  0.0000E+00  0.0000E+00  0.0000E+00  0.0000E+00  0.0000E+00  0.0000E+00  0.0000E+00  0.0000E+00  0.0000E+00  0.0000E+00  0.0000E+00  0.0000E+00  0.0000E+00  0.0000E+00
    -59.108  0.0000E+00  0.0000E+00  0.0000E+00  0.0000E+00  0.0000E+00  0.0000E+00  0.0000E+00  0.0000E+00  0.0000E+00  0.0000E+00  0.0000E+00  0.0000E+00  0.0000E+00  0.0000E+00  0.0000E+00  0.0000E+00  0.0000E+00  0.0000E+00
    -58.842  0.0000E+00  0.0000E+00  0.0000E+00  0.0000E+00  0.0000E+00  0.0000E+00  0.0000E+00  0.0000E+00  0.0000E+00  0.0000E+00  0.0000E+00  0.0000E+00  0.0000E+00  0.0000E+00  0.0000E+00  0.0000E+00  0.0000E+00  0.0000E+00
    -58.575  0.0000E+00  0.0000E+00  0.0000E+00  0.0000E+00  0.0000E+00  0.0000E+00  0.0000E+00  0.0000E+00  0.0000E+00  0.0000E+00  0.0000E+00  0.0000E+00  0.0000E+00  0.0000E+00  0.0000E+00  0.0000E+00  0.0000E+00  0.0000E+00
    -58.309  0.0000E+00  0.0000E+00  0.0000E+00  0.0000E+00  0.0000E+00  0.0000E+00  0.0000E+00  0.0000E+00  0.0000E+00  0.0000E+00  0.0000E+00  0.0000E+00  0.0000E+00  0.0000E+00  0.0000E+00  0.0000E+00  0.0000E+00  0.0000E+00
    -58.042  0.0000E+00  0.0000E+00  0.0000E+00  0.0000E+00  0.0000E+00  0.0000E+00  0.0000E+00  0.0000E+00  0.0000E+00  0.0000E+00  0.0000E+00  0.0000E+00  0.0000E+00  0.0000E+00  0.0000E+00  0.0000E+00  0.0000E+00  0.0000E+00
    -57.776  0.0000E+00  0.0000E+00  0.0000E+00  0.0000E+00  0.0000E+00  0.0000E+00  0.0000E+00  0.0000E+00  0.0000E+00  0.0000E+00  0.0000E+00  0.0000E+00  0.0000E+00  0.0000E+00  0.0000E+00  0.0000E+00  0.0000E+00  0.0000E+00
    -57.509  0.0000E+00  0.0000E+00  0.0000E+00  0.0000E+00  0.0000E+00  0.0000E+00  0.0000E+00  0.0000E+00  0.0000E+00  0.0000E+00  0.0000E+00  0.0000E+00  0.0000E+00  0.0000E+00  0.0000E+00  0.0000E+00  0.0000E+00  0.0000E+00
    -57.242  0.0000E+00  0.0000E+00  0.0000E+00  0.0000E+00  0.0000E+00  0.0000E+00  0.0000E+00  0.0000E+00  0.0000E+00  0.0000E+00  0.0000E+00  0.0000E+00  0.0000E+00  0.0000E+00  0.0000E+00  0.0000E+00  0.0000E+00  0.0000E+00
    -56.976  0.0000E+00  0.0000E+00  0.0000E+00  0.0000E+00  0.0000E+00  0.0000E+00  0.0000E+00  0.0000E+00  0.0000E+00  0.0000E+00  0.0000E+00  0.0000E+00  0.0000E+00  0.0000E+00  0.0000E+00  0.0000E+00  0.0000E+00  0.0000E+00
    -56.709  0.1143E-03  0.7580E-04  0.3540E-09  0.2346E-09  0.3540E-09  0.2346E-09  0.3540E-09  0.2346E-09  0.3375E-09  0.2237E-09  0.3375E-09  0.2237E-09  0.1053E-10  0.6966E-11  0.3375E-09  0.2237E-09  0.1053E-10  0.6966E-11
    -56.443  0.2326E-01  0.1548E-01  0.7200E-07  0.4790E-07  0.7200E-07  0.4790E-07  0.7200E-07  0.4790E-07  0.6893E-07  0.4578E-07  0.6893E-07  0.4578E-07  0.2149E-08  0.1425E-08  0.6893E-07  0.4578E-07  0.2149E-08  0.1425E-08
    -56.176  0.1899E+01  0.1555E+01  0.5423E-05  0.4506E-05  0.5423E-05  0.4506E-05  0.5423E-05  0.4506E-05  0.6498E-05  0.5242E-05  0.6498E-05  0.5242E-05  0.1943E-06  0.1573E-06  0.6498E-05  0.5242E-05  0.1943E-06  0.1573E-06
    -55.910  0.1796E+01  0.2139E+01  0.4462E-05  0.5372E-05  0.4462E-05  0.5372E-05  0.4462E-05  0.5372E-05  0.6307E-05  0.7539E-05  0.6307E-05  0.7539E-05  0.1823E-06  0.2176E-06  0.6307E-05  0.7539E-05  0.1823E-06  0.2176E-06
    -55.643  0.0000E+00  0.0000E+00  0.0000E+00  0.0000E+00  0.0000E+00  0.0000E+00  0.0000E+00  0.0000E+00  0.0000E+00  0.0000E+00  0.0000E+00  0.0000E+00  0.0000E+00  0.0000E+00  0.0000E+00  0.0000E+00  0.0000E+00  0.0000E+00
    -55.377  0.0000E+00  0.0000E+00  0.0000E+00  0.0000E+00  0.0000E+00  0.0000E+00  0.0000E+00  0.0000E+00  0.0000E+00  0.0000E+00  0.0000E+00  0.0000E+00  0.0000E+00  0.0000E+00  0.0000E+00  0.0000E+00  0.0000E+00  0.0000E+00
    -55.110  0.0000E+00  0.0000E+00  0.0000E+00  0.0000E+00  0.0000E+00  0.0000E+00  0.0000E+00  0.0000E+00  0.0000E+00  0.0000E+00  0.0000E+00  0.0000E+00  0.0000E+00  0.0000E+00  0.0000E+00  0.0000E+00  0.0000E+00  0.0000E+00
    -54.844  0.0000E+00  0.0000E+00  0.0000E+00  0.0000E+00  0.0000E+00  0.0000E+00  0.0000E+00  0.0000E+00  0.0000E+00  0.0000E+00  0.0000E+00  0.0000E+00  0.0000E+00  0.0000E+00  0.0000E+00  0.0000E+00  0.0000E+00  0.0000E+00
    -54.577  0.0000E+00  0.0000E+00  0.0000E+00  0.0000E+00  0.0000E+00  0.0000E+00  0.0000E+00  0.0000E+00  0.0000E+00  0.0000E+00  0.0000E+00  0.0000E+00  0.0000E+00  0.0000E+00  0.0000E+00  0.0000E+00  0.0000E+00  0.0000E+00
    -54.311  0.0000E+00  0.0000E+00  0.0000E+00  0.0000E+00  0.0000E+00  0.0000E+00  0.0000E+00  0.0000E+00  0.0000E+00  0.0000E+00  0.0000E+00  0.0000E+00  0.0000E+00  0.0000E+00  0.0000E+00  0.0000E+00  0.0000E+00  0.0000E+00
    -54.044  0.0000E+00  0.0000E+00  0.0000E+00  0.0000E+00  0.0000E+00  0.0000E+00  0.0000E+00  0.0000E+00  0.0000E+00  0.0000E+00  0.0000E+00  0.0000E+00  0.0000E+00  0.0000E+00  0.0000E+00  0.0000E+00  0.0000E+00  0.0000E+00
    -53.778  0.0000E+00  0.0000E+00  0.0000E+00  0.0000E+00  0.0000E+00  0.0000E+00  0.0000E+00  0.0000E+00  0.0000E+00  0.0000E+00  0.0000E+00  0.0000E+00  0.0000E+00  0.0000E+00  0.0000E+00  0.0000E+00  0.0000E+00  0.0000E+00
    -53.511  0.0000E+00  0.0000E+00  0.0000E+00  0.0000E+00  0.0000E+00  0.0000E+00  0.0000E+00  0.0000E+00  0.0000E+00  0.0000E+00  0.0000E+00  0.0000E+00  0.0000E+00  0.0000E+00  0.0000E+00  0.0000E+00  0.0000E+00  0.0000E+00
    -53.245  0.0000E+00  0.0000E+00  0.0000E+00  0.0000E+00  0.0000E+00  0.0000E+00  0.0000E+00  0.0000E+00  0.0000E+00  0.0000E+00  0.0000E+00  0.0000E+00  0.0000E+00  0.0000E+00  0.0000E+00  0.0000E+00  0.0000E+00  0.0000E+00
    -52.978  0.0000E+00  0.0000E+00  0.0000E+00  0.0000E+00  0.0000E+00  0.0000E+00  0.0000E+00  0.0000E+00  0.0000E+00  0.0000E+00  0.0000E+00  0.0000E+00  0.0000E+00  0.0000E+00  0.0000E+00  0.0000E+00  0.0000E+00  0.0000E+00
    -52.712  0.0000E+00  0.0000E+00  0.0000E+00  0.0000E+00  0.0000E+00  0.0000E+00  0.0000E+00  0.0000E+00  0.0000E+00  0.0000E+00  0.0000E+00  0.0000E+00  0.0000E+00  0.0000E+00  0.0000E+00  0.0000E+00  0.0000E+00  0.0000E+00
    -52.445  0.0000E+00  0.0000E+00  0.0000E+00  0.0000E+00  0.0000E+00  0.0000E+00  0.0000E+00  0.0000E+00  0.0000E+00  0.0000E+00  0.0000E+00  0.0000E+00  0.0000E+00  0.0000E+00  0.0000E+00  0.0000E+00  0.0000E+00  0.0000E+00
    -52.179  0.0000E+00  0.0000E+00  0.0000E+00  0.0000E+00  0.0000E+00  0.0000E+00  0.0000E+00  0.0000E+00  0.0000E+00  0.0000E+00  0.0000E+00  0.0000E+00  0.0000E+00  0.0000E+00  0.0000E+00  0.0000E+00  0.0000E+00  0.0000E+00
    -51.912  0.0000E+00  0.0000E+00  0.0000E+00  0.0000E+00  0.0000E+00  0.0000E+00  0.0000E+00  0.0000E+00  0.0000E+00  0.0000E+00  0.0000E+00  0.0000E+00  0.0000E+00  0.0000E+00  0.0000E+00  0.0000E+00  0.0000E+00  0.0000E+00
    -51.645  0.0000E+00  0.0000E+00  0.0000E+00  0.0000E+00  0.0000E+00  0.0000E+00  0.0000E+00  0.0000E+00  0.0000E+00  0.0000E+00  0.0000E+00  0.0000E+00  0.0000E+00  0.0000E+00  0.0000E+00  0.0000E+00  0.0000E+00  0.0000E+00
    -51.379  0.0000E+00  0.0000E+00  0.0000E+00  0.0000E+00  0.0000E+00  0.0000E+00  0.0000E+00  0.0000E+00  0.0000E+00  0.0000E+00  0.0000E+00  0.0000E+00  0.0000E+00  0.0000E+00  0.0000E+00  0.0000E+00  0.0000E+00  0.0000E+00
    -51.112  0.0000E+00  0.0000E+00  0.0000E+00  0.0000E+00  0.0000E+00  0.0000E+00  0.0000E+00  0.0000E+00  0.0000E+00  0.0000E+00  0.0000E+00  0.0000E+00  0.0000E+00  0.0000E+00  0.0000E+00  0.0000E+00  0.0000E+00  0.0000E+00
    -50.846  0.0000E+00  0.0000E+00  0.0000E+00  0.0000E+00  0.0000E+00  0.0000E+00  0.0000E+00  0.0000E+00  0.0000E+00  0.0000E+00  0.0000E+00  0.0000E+00  0.0000E+00  0.0000E+00  0.0000E+00  0.0000E+00  0.0000E+00  0.0000E+00
    -50.579  0.0000E+00  0.0000E+00  0.0000E+00  0.0000E+00  0.0000E+00  0.0000E+00  0.0000E+00  0.0000E+00  0.0000E+00  0.0000E+00  0.0000E+00  0.0000E+00  0.0000E+00  0.0000E+00  0.0000E+00  0.0000E+00  0.0000E+00  0.0000E+00
    -50.313  0.0000E+00  0.0000E+00  0.0000E+00  0.0000E+00  0.0000E+00  0.0000E+00  0.0000E+00  0.0000E+00  0.0000E+00  0.0000E+00  0.0000E+00  0.0000E+00  0.0000E+00  0.0000E+00  0.0000E+00  0.0000E+00  0.0000E+00  0.0000E+00
    -50.046  0.0000E+00  0.0000E+00  0.0000E+00  0.0000E+00  0.0000E+00  0.0000E+00  0.0000E+00  0.0000E+00  0.0000E+00  0.0000E+00  0.0000E+00  0.0000E+00  0.0000E+00  0.0000E+00  0.0000E+00  0.0000E+00  0.0000E+00  0.0000E+00
    -49.780  0.0000E+00  0.0000E+00  0.0000E+00  0.0000E+00  0.0000E+00  0.0000E+00  0.0000E+00  0.0000E+00  0.0000E+00  0.0000E+00  0.0000E+00  0.0000E+00  0.0000E+00  0.0000E+00  0.0000E+00  0.0000E+00  0.0000E+00  0.0000E+00
    -49.513  0.0000E+00  0.0000E+00  0.0000E+00  0.0000E+00  0.0000E+00  0.0000E+00  0.0000E+00  0.0000E+00  0.0000E+00  0.0000E+00  0.0000E+00  0.0000E+00  0.0000E+00  0.0000E+00  0.0000E+00  0.0000E+00  0.0000E+00  0.0000E+00
    -49.247  0.0000E+00  0.0000E+00  0.0000E+00  0.0000E+00  0.0000E+00  0.0000E+00  0.0000E+00  0.0000E+00  0.0000E+00  0.0000E+00  0.0000E+00  0.0000E+00  0.0000E+00  0.0000E+00  0.0000E+00  0.0000E+00  0.0000E+00  0.0000E+00
    -48.980  0.0000E+00  0.0000E+00  0.0000E+00  0.0000E+00  0.0000E+00  0.0000E+00  0.0000E+00  0.0000E+00  0.0000E+00  0.0000E+00  0.0000E+00  0.0000E+00  0.0000E+00  0.0000E+00  0.0000E+00  0.0000E+00  0.0000E+00  0.0000E+00
    -48.714  0.0000E+00  0.0000E+00  0.0000E+00  0.0000E+00  0.0000E+00  0.0000E+00  0.0000E+00  0.0000E+00  0.0000E+00  0.0000E+00  0.0000E+00  0.0000E+00  0.0000E+00  0.0000E+00  0.0000E+00  0.0000E+00  0.0000E+00  0.0000E+00
    -48.447  0.0000E+00  0.0000E+00  0.0000E+00  0.0000E+00  0.0000E+00  0.0000E+00  0.0000E+00  0.0000E+00  0.0000E+00  0.0000E+00  0.0000E+00  0.0000E+00  0.0000E+00  0.0000E+00  0.0000E+00  0.0000E+00  0.0000E+00  0.0000E+00
    -48.181  0.0000E+00  0.0000E+00  0.0000E+00  0.0000E+00  0.0000E+00  0.0000E+00  0.0000E+00  0.0000E+00  0.0000E+00  0.0000E+00  0.0000E+00  0.0000E+00  0.0000E+00  0.0000E+00  0.0000E+00  0.0000E+00  0.0000E+00  0.0000E+00
    -47.914  0.0000E+00  0.0000E+00  0.0000E+00  0.0000E+00  0.0000E+00  0.0000E+00  0.0000E+00  0.0000E+00  0.0000E+00  0.0000E+00  0.0000E+00  0.0000E+00  0.0000E+00  0.0000E+00  0.0000E+00  0.0000E+00  0.0000E+00  0.0000E+00
    -47.648  0.0000E+00  0.0000E+00  0.0000E+00  0.0000E+00  0.0000E+00  0.0000E+00  0.0000E+00  0.0000E+00  0.0000E+00  0.0000E+00  0.0000E+00  0.0000E+00  0.0000E+00  0.0000E+00  0.0000E+00  0.0000E+00  0.0000E+00  0.0000E+00
    -47.381  0.0000E+00  0.0000E+00  0.0000E+00  0.0000E+00  0.0000E+00  0.0000E+00  0.0000E+00  0.0000E+00  0.0000E+00  0.0000E+00  0.0000E+00  0.0000E+00  0.0000E+00  0.0000E+00  0.0000E+00  0.0000E+00  0.0000E+00  0.0000E+00
    -47.115  0.0000E+00  0.0000E+00  0.0000E+00  0.0000E+00  0.0000E+00  0.0000E+00  0.0000E+00  0.0000E+00  0.0000E+00  0.0000E+00  0.0000E+00  0.0000E+00  0.0000E+00  0.0000E+00  0.0000E+00  0.0000E+00  0.0000E+00  0.0000E+00
    -46.848  0.0000E+00  0.0000E+00  0.0000E+00  0.0000E+00  0.0000E+00  0.0000E+00  0.0000E+00  0.0000E+00  0.0000E+00  0.0000E+00  0.0000E+00  0.0000E+00  0.0000E+00  0.0000E+00  0.0000E+00  0.0000E+00  0.0000E+00  0.0000E+00
    -46.581  0.0000E+00  0.0000E+00  0.0000E+00  0.0000E+00  0.0000E+00  0.0000E+00  0.0000E+00  0.0000E+00  0.0000E+00  0.0000E+00  0.0000E+00  0.0000E+00  0.0000E+00  0.0000E+00  0.0000E+00  0.0000E+00  0.0000E+00  0.0000E+00