   2   2   1   0
  0.1228939E+02  0.2907503E-09  0.2907503E-09  0.2907503E-09  0.5000000E-15
  1.000000000000000E-004
  CAR 
 unknown system                          
     25.75155655    -56.46676318  301     10.90676746      1.00000000
    -56.467  0.0000E+00  0.0000E+00  0.0000E+00  0.0000E+00
    -56.193  0.0000E+00  0.0000E+00  0.0000E+00  0.0000E+00
    -55.919  0.0000E+00  0.0000E+00  0.0000E+00  0.0000E+00
    -55.645  0.0000E+00  0.0000E+00  0.0000E+00  0.0000E+00
    -55.371  0.0000E+00  0.0000E+00  0.0000E+00  0.0000E+00
    -55.096  0.0000E+00  0.0000E+00  0.0000E+00  0.0000E+00
    -54.822  0.0000E+00  0.0000E+00  0.0000E+00  0.0000E+00
    -54.548  0.0000E+00  0.0000E+00  0.0000E+00  0.0000E+00
    -54.274  0.0000E+00  0.0000E+00  0.0000E+00  0.0000E+00
    -54.000  0.0000E+00  0.0000E+00  0.0000E+00  0.0000E+00
    -53.726  0.0000E+00  0.0000E+00  0.0000E+00  0.0000E+00
    -53.452  0.0000E+00  0.0000E+00  0.0000E+00  0.0000E+00
    -53.178  0.2149E-04  0.2233E-04  0.5889E-05  0.6121E-05
    -52.904  0.5624E-02  0.5829E-02  0.1547E-02  0.1604E-02
    -52.630  0.6310E+00  0.6451E+00  0.1745E+00  0.1784E+00
    -52.356  0.5216E+01  0.5233E+01  0.1604E+01  0.1613E+01
    -52.082  0.1376E+01  0.1336E+01  0.1997E+01  0.1997E+01
    -51.808  0.0000E+00  0.0000E+00  0.2000E+01  0.2000E+01
    -51.534  0.0000E+00  0.0000E+00  0.2000E+01  0.2000E+01
    -51.260  0.0000E+00  0.0000E+00  0.2000E+01  0.2000E+01
    -50.986  0.0000E+00  0.0000E+00  0.2000E+01  0.2000E+01
    -50.711  0.0000E+00  0.0000E+00  0.2000E+01  0.2000E+01
    -50.437  0.0000E+00  0.0000E+00  0.2000E+01  0.2000E+01
    -50.163  0.0000E+00  0.0000E+00  0.2000E+01  0.2000E+01
    -49.889  0.0000E+00  0.0000E+00  0.2000E+01  0.2000E+01
    -49.615  0.0000E+00  0.0000E+00  0.2000E+01  0.2000E+01
    -49.341  0.0000E+00  0.0000E+00  0.2000E+01  0.2000E+01
    -49.067  0.0000E+00  0.0000E+00  0.2000E+01  0.2000E+01
    -48.793  0.0000E+00  0.0000E+00  0.2000E+01  0.2000E+01
    -48.519  0.0000E+00  0.0000E+00  0.2000E+01  0.2000E+01
    -48.245  0.0000E+00  0.0000E+00  0.2000E+01  0.2000E+01
    -47.971  0.0000E+00  0.0000E+00  0.2000E+01  0.2000E+01
    -47.697  0.0000E+00  0.0000E+00  0.2000E+01  0.2000E+01
    -47.423  0.0000E+00  0.0000E+00  0.2000E+01  0.2000E+01
    -47.149  0.0000E+00  0.0000E+00  0.2000E+01  0.2000E+01
    -46.875  0.0000E+00  0.0000E+00  0.2000E+01  0.2000E+01
    -46.601  0.0000E+00  0.0000E+00  0.2000E+01  0.2000E+01
    -46.327  0.0000E+00  0.0000E+00  0.2000E+01  0.2000E+01
    -46.052  0.0000E+00  0.0000E+00  0.2000E+01  0.2000E+01
    -45.778  0.0000E+00  0.0000E+00  0.2000E+01  0.2000E+01
    -45.504  0.0000E+00  0.0000E+00  0.2000E+01  0.2000E+01
    -45.230  0.0000E+00  0.0000E+00  0.2000E+01  0.2000E+01
    -44.956  0.0000E+00  0.0000E+00  0.2000E+01  0.2000E+01
    -44.682  0.0000E+00  0.0000E+00  0.2000E+01  0.2000E+01
    -44.408  0.0000E+00  0.0000E+00  0.2000E+01  0.2000E+01
    -44.134  0.0000E+00  0.0000E+00  0.2000E+01  0.2000E+01
    -43.860  0.0000E+00  0.0000E+00  0.2000E+01  0.2000E+01
    -43.586  0.0000E+00  0.0000E+00  0.2000E+01  0.2000E+01
    -43.312  0.0000E+00  0.0000E+00  0.2000E+01  0.2000E+01
    -43.038  0.0000E+00  0.0000E+00  0.2000E+01  0.2000E+01
    -42.764  0.0000E+00  0.0000E+00  0.2000E+01  0.2000E+01
    -42.490  0.0000E+00  0.0000E+00  0.2000E+01  0.2000E+01
    -42.216  0.0000E+00  0.0000E+00  0.2000E+01  0.2000E+01
    -41.942  0.0000E+00  0.0000E+00  0.2000E+01  0.2000E+01
    -41.667  0.0000E+00  0.0000E+00  0.2000E+01  0.2000E+01
    -41.393  0.0000E+00  0.0000E+00  0.2000E+01  0.2000E+01
    -41.119  0.0000E+00  0.0000E+00  0.2000E+01  0.2000E+01
    -40.845  0.0000E+00  0.0000E+00  0.2000E+01  0.2000E+01
    -40.571  0.0000E+00  0.0000E+00  0.2000E+01  0.2000E+01
    -40.297  0.0000E+00  0.0000E+00  0.2000E+01  0.2000E+01
    -40.023  0.0000E+00  0.0000E+00  0.2000E+01  0.2000E+01
    -39.749  0.0000E+00  0.0000E+00  0.2000E+01  0.2000E+01
    -39.475  0.0000E+00  0.0000E+00  0.2000E+01  0.2000E+01
    -39.201  0.0000E+00  0.0000E+00  0.2000E+01  0.2000E+01
    -38.927  0.0000E+00  0.0000E+00  0.2000E+01  0.2000E+01
    -38.653  0.0000E+00  0.0000E+00  0.2000E+01  0.2000E+01
    -38.379  0.0000E+00  0.0000E+00  0.2000E+01  0.2000E+01
    -38.105  0.0000E+00  0.0000E+00  0.2000E+01  0.2000E+01
    -37.831  0.0000E+00  0.0000E+00  0.2000E+01  0.2000E+01
    -37.557  0.0000E+00  0.0000E+00  0.2000E+01  0.2000E+01
    -37.282  0.0000E+00  0.0000E+00  0.2000E+01  0.2000E+01
    -37.008  0.0000E+00  0.0000E+00  0.2000E+01  0.2000E+01
    -36.734  0.0000E+00  0.0000E+00  0.2000E+01  0.2000E+01
    -36.460  0.0000E+00  0.0000E+00  0.2000E+01  0.2000E+01
    -36.186  0.0000E+00  0.0000E+00  0.2000E+01  0.2000E+01
    -35.912  0.0000E+00  0.0000E+00  0.2000E+01  0.2000E+01
    -35.638  0.0000E+00  0.0000E+00  0.2000E+01  0.2000E+01
    -35.364  0.0000E+00  0.0000E+00  0.2000E+01  0.2000E+01
    -35.090  0.0000E+00  0.0000E+00  0.2000E+01  0.2000E+01
    -34.816  0.0000E+00  0.0000E+00  0.2000E+01  0.2000E+01
    -34.542  0.0000E+00  0.0000E+00  0.2000E+01  0.2000E+01
    -34.268  0.0000E+00  0.0000E+00  0.2000E+01  0.2000E+01
    -33.994  0.0000E+00  0.0000E+00  0.2000E+01  0.2000E+01
    -33.720  0.0000E+00  0.0000E+00  0.2000E+01  0.2000E+01
    -33.446  0.0000E+00  0.0000E+00  0.2000E+01  0.2000E+01
    -33.172  0.0000E+00  0.0000E+00  0.2000E+01  0.2000E+01
    -32.898  0.0000E+00  0.0000E+00  0.2000E+01  0.2000E+01
    -32.623  0.0000E+00  0.0000E+00  0.2000E+01  0.2000E+01
    -32.349  0.0000E+00  0.0000E+00  0.2000E+01  0.2000E+01
    -32.075  0.0000E+00  0.0000E+00  0.2000E+01  0.2000E+01
    -31.801  0.0000E+00  0.0000E+00  0.2000E+01  0.2000E+01
    -31.527  0.0000E+00  0.0000E+00  0.2000E+01  0.2000E+01
    -31.253  0.0000E+00  0.0000E+00  0.2000E+01  0.2000E+01
    -30.979  0.0000E+00  0.0000E+00  0.2000E+01  0.2000E+01
    -30.705  0.0000E+00  0.0000E+00  0.2000E+01  0.2000E+01
    -30.431  0.0000E+00  0.0000E+00  0.2000E+01  0.2000E+01
    -30.157  0.0000E+00  0.0000E+00  0.2000E+01  0.2000E+01
    -29.883  0.0000E+00  0.0000E+00  0.2000E+01  0.2000E+01
    -29.609  0.0000E+00  0.0000E+00  0.2000E+01  0.2000E+01
    -29.335  0.0000E+00  0.0000E+00  0.2000E+01  0.2000E+01
    -29.061  0.0000E+00  0.0000E+00  0.2000E+01  0.2000E+01
    -28.787  0.0000E+00  0.0000E+00  0.2000E+01  0.2000E+01
    -28.513  0.0000E+00  0.0000E+00  0.2000E+01  0.2000E+01
    -28.238  0.0000E+00  0.0000E+00  0.2000E+01  0.2000E+01
    -27.964  0.0000E+00  0.0000E+00  0.2000E+01  0.2000E+01
    -27.690  0.2257E-06  0.2316E-06  0.2000E+01  0.2000E+01
    -27.416  0.1991E-03  0.2044E-03  0.2000E+01  0.2000E+01
    -27.142  0.4555E-01  0.4669E-01  0.2013E+01  0.2013E+01
    -26.868  0.1981E+01  0.2002E+01  0.2556E+01  0.2561E+01
    -26.594  0.4383E+01  0.4379E+01  0.3760E+01  0.3765E+01
    -26.320  0.4204E+01  0.4215E+01  0.4931E+01  0.4938E+01
    -26.046  0.5863E+01  0.5870E+01  0.6553E+01  0.6562E+01
    -25.772  0.4969E+01  0.4944E+01  0.7939E+01  0.7941E+01
    -25.498  0.1068E+00  0.1043E+00  0.8000E+01  0.8000E+01
    -25.224  0.0000E+00  0.0000E+00  0.8000E+01  0.8000E+01
    -24.950  0.0000E+00  0.0000E+00  0.8000E+01  0.8000E+01
    -24.676  0.0000E+00  0.0000E+00  0.8000E+01  0.8000E+01
    -24.402  0.0000E+00  0.0000E+00  0.8000E+01  0.8000E+01
    -24.128  0.0000E+00  0.0000E+00  0.8000E+01  0.8000E+01
    -23.853  0.0000E+00  0.0000E+00  0.8000E+01  0.8000E+01
    -23.579  0.0000E+00  0.0000E+00  0.8000E+01  0.8000E+01
    -23.305  0.0000E+00  0.0000E+00  0.8000E+01  0.8000E+01
    -23.031  0.0000E+00  0.0000E+00  0.8000E+01  0.8000E+01
    -22.757  0.0000E+00  0.0000E+00  0.8000E+01  0.8000E+01
    -22.483  0.0000E+00  0.0000E+00  0.8000E+01  0.8000E+01
    -22.209  0.0000E+00  0.0000E+00  0.8000E+01  0.8000E+01
    -21.935  0.0000E+00  0.0000E+00  0.8000E+01  0.8000E+01
    -21.661  0.0000E+00  0.0000E+00  0.8000E+01  0.8000E+01
    -21.387  0.0000E+00  0.0000E+00  0.8000E+01  0.8000E+01
    -21.113  0.0000E+00  0.0000E+00  0.8000E+01  0.8000E+01
    -20.839  0.0000E+00  0.0000E+00  0.8000E+01  0.8000E+01
    -20.565  0.0000E+00  0.0000E+00  0.8000E+01  0.8000E+01
    -20.291  0.0000E+00  0.0000E+00  0.8000E+01  0.8000E+01
    -20.017  0.0000E+00  0.0000E+00  0.8000E+01  0.8000E+01
    -19.743  0.0000E+00  0.0000E+00  0.8000E+01  0.8000E+01
    -19.469  0.0000E+00  0.0000E+00  0.8000E+01  0.8000E+01
    -19.194  0.0000E+00  0.0000E+00  0.8000E+01  0.8000E+01
    -18.920  0.0000E+00  0.0000E+00  0.8000E+01  0.8000E+01
    -18.646  0.0000E+00  0.0000E+00  0.8000E+01  0.8000E+01
    -18.372  0.0000E+00  0.0000E+00  0.8000E+01  0.8000E+01
    -18.098  0.0000E+00  0.0000E+00  0.8000E+01  0.8000E+01
    -17.824  0.0000E+00  0.0000E+00  0.8000E+01  0.8000E+01
    -17.550  0.0000E+00  0.0000E+00  0.8000E+01  0.8000E+01
    -17.276  0.0000E+00  0.0000E+00  0.8000E+01  0.8000E+01
    -17.002  0.0000E+00  0.0000E+00  0.8000E+01  0.8000E+01
    -16.728  0.0000E+00  0.0000E+00  0.8000E+01  0.8000E+01
    -16.454  0.0000E+00  0.0000E+00  0.8000E+01  0.8000E+01
    -16.180  0.0000E+00  0.0000E+00  0.8000E+01  0.8000E+01
    -15.906  0.0000E+00  0.0000E+00  0.8000E+01  0.8000E+01
    -15.632  0.0000E+00  0.0000E+00  0.8000E+01  0.8000E+01
    -15.358  0.0000E+00  0.0000E+00  0.8000E+01  0.8000E+01
    -15.084  0.0000E+00  0.0000E+00  0.8000E+01  0.8000E+01
    -14.809  0.0000E+00  0.0000E+00  0.8000E+01  0.8000E+01
    -14.535  0.0000E+00  0.0000E+00  0.8000E+01  0.8000E+01
    -14.261  0.0000E+00  0.0000E+00  0.8000E+01  0.8000E+01
    -13.987  0.0000E+00  0.0000E+00  0.8000E+01  0.8000E+01
    -13.713  0.0000E+00  0.0000E+00  0.8000E+01  0.8000E+01
    -13.439  0.0000E+00  0.0000E+00  0.8000E+01  0.8000E+01
    -13.165  0.0000E+00  0.0000E+00  0.8000E+01  0.8000E+01
    -12.891  0.0000E+00  0.0000E+00  0.8000E+01  0.8000E+01
    -12.617  0.0000E+00  0.0000E+00  0.8000E+01  0.8000E+01
    -12.343  0.0000E+00  0.0000E+00  0.8000E+01  0.8000E+01
    -12.069  0.0000E+00  0.0000E+00  0.8000E+01  0.8000E+01
    -11.795  0.0000E+00  0.0000E+00  0.8000E+01  0.8000E+01
    -11.521  0.0000E+00  0.0000E+00  0.8000E+01  0.8000E+01
    -11.247  0.0000E+00  0.0000E+00  0.8000E+01  0.8000E+01
    -10.973  0.0000E+00  0.0000E+00  0.8000E+01  0.8000E+01
    -10.699  0.0000E+00  0.0000E+00  0.8000E+01  0.8000E+01
    -10.425  0.0000E+00  0.0000E+00  0.8000E+01  0.8000E+01
    -10.150  0.0000E+00  0.0000E+00  0.8000E+01  0.8000E+01
     -9.876  0.0000E+00  0.0000E+00  0.8000E+01  0.8000E+01
     -9.602  0.0000E+00  0.0000E+00  0.8000E+01  0.8000E+01
     -9.328  0.0000E+00  0.0000E+00  0.8000E+01  0.8000E+01
     -9.054  0.0000E+00  0.0000E+00  0.8000E+01  0.8000E+01
     -8.780  0.0000E+00  0.0000E+00  0.8000E+01  0.8000E+01
     -8.506  0.0000E+00  0.0000E+00  0.8000E+01  0.8000E+01
     -8.232  0.0000E+00  0.0000E+00  0.8000E+01  0.8000E+01
     -7.958  0.0000E+00  0.0000E+00  0.8000E+01  0.8000E+01
     -7.684  0.0000E+00  0.0000E+00  0.8000E+01  0.8000E+01
     -7.410  0.0000E+00  0.0000E+00  0.8000E+01  0.8000E+01
     -7.136  0.0000E+00  0.0000E+00  0.8000E+01  0.8000E+01
     -6.862  0.0000E+00  0.0000E+00  0.8000E+01  0.8000E+01
     -6.588  0.0000E+00  0.0000E+00  0.8000E+01  0.8000E+01
     -6.314  0.0000E+00  0.0000E+00  0.8000E+01  0.8000E+01
     -6.040  0.0000E+00  0.0000E+00  0.8000E+01  0.8000E+01
     -5.765  0.0000E+00  0.0000E+00  0.8000E+01  0.8000E+01
     -5.491  0.0000E+00  0.0000E+00  0.8000E+01  0.8000E+01
     -5.217  0.0000E+00  0.0000E+00  0.8000E+01  0.8000E+01
     -4.943  0.0000E+00  0.0000E+00  0.8000E+01  0.8000E+01
     -4.669  0.0000E+00  0.0000E+00  0.8000E+01  0.8000E+01
     -4.395  0.0000E+00  0.0000E+00  0.8000E+01  0.8000E+01
     -4.121  0.0000E+00  0.0000E+00  0.8000E+01  0.8000E+01
     -3.847  0.0000E+00  0.0000E+00  0.8000E+01  0.8000E+01
     -3.573  0.0000E+00  0.0000E+00  0.8000E+01  0.8000E+01
     -3.299  0.0000E+00  0.0000E+00  0.8000E+01  0.8000E+01
     -3.025  0.0000E+00  0.0000E+00  0.8000E+01  0.8000E+01
     -2.751  0.0000E+00  0.0000E+00  0.8000E+01  0.8000E+01
     -2.477  0.0000E+00  0.0000E+00  0.8000E+01  0.8000E+01
     -2.203  0.0000E+00  0.0000E+00  0.8000E+01  0.8000E+01
     -1.929  0.0000E+00  0.0000E+00  0.8000E+01  0.8000E+01
     -1.655  0.0000E+00  0.0000E+00  0.8000E+01  0.8000E+01
     -1.380  0.0000E+00  0.0000E+00  0.8000E+01  0.8000E+01
     -1.106  0.0000E+00  0.0000E+00  0.8000E+01  0.8000E+01
     -0.832  0.0000E+00  0.0000E+00  0.8000E+01  0.8000E+01
     -0.558  0.0000E+00  0.0000E+00  0.8000E+01  0.8000E+01
     -0.284  0.0000E+00  0.0000E+00  0.8000E+01  0.8000E+01
     -0.010  0.0000E+00  0.0000E+00  0.8000E+01  0.8000E+01
      0.264  0.0000E+00  0.0000E+00  0.8000E+01  0.8000E+01
      0.538  0.0000E+00  0.0000E+00  0.8000E+01  0.8000E+01
      0.812  0.0000E+00  0.0000E+00  0.8000E+01  0.8000E+01
      1.086  0.0000E+00  0.0000E+00  0.8000E+01  0.8000E+01
      1.360  0.0000E+00  0.0000E+00  0.8000E+01  0.8000E+01
      1.634  0.0000E+00  0.0000E+00  0.8000E+01  0.8000E+01
      1.908  0.0000E+00  0.0000E+00  0.8000E+01  0.8000E+01
      2.182  0.0000E+00  0.0000E+00  0.8000E+01  0.8000E+01
      2.456  0.0000E+00  0.0000E+00  0.8000E+01  0.8000E+01
      2.730  0.0000E+00  0.0000E+00  0.8000E+01  0.8000E+01
      3.004  0.0000E+00  0.0000E+00  0.8000E+01  0.8000E+01
      3.279  0.0000E+00  0.0000E+00  0.8000E+01  0.8000E+01
      3.553  0.1496E-07  0.1541E-07  0.8000E+01  0.8000E+01
      3.827  0.5384E-05  0.5546E-05  0.8000E+01  0.8000E+01
      4.101  0.9875E-03  0.1011E-02  0.8000E+01  0.8000E+01
      4.375  0.1856E-01  0.1873E-01  0.8005E+01  0.8005E+01
      4.649  0.3301E-01  0.3302E-01  0.8014E+01  0.8014E+01
      4.923  0.6618E-01  0.6634E-01  0.8033E+01  0.8033E+01
      5.197  0.4558E-01  0.4575E-01  0.8046E+01  0.8046E+01
      5.471  0.9567E-01  0.9570E-01  0.8072E+01  0.8072E+01
      5.745  0.9189E-01  0.9215E-01  0.8097E+01  0.8098E+01
      6.019  0.8151E-01  0.8131E-01  0.8120E+01  0.8120E+01
      6.293  0.1606E+00  0.1609E+00  0.8164E+01  0.8164E+01
      6.567  0.1393E+00  0.1393E+00  0.8203E+01  0.8203E+01
      6.841  0.1648E+00  0.1652E+00  0.8248E+01  0.8249E+01
      7.115  0.2273E+00  0.2282E+00  0.8311E+01  0.8312E+01
      7.389  0.3511E+00  0.3485E+00  0.8408E+01  0.8408E+01
      7.664  0.7205E+00  0.7221E+00  0.8606E+01  0.8607E+01
      7.938  0.1023E+01  0.1024E+01  0.8890E+01  0.8891E+01
      8.212  0.1029E+01  0.1030E+01  0.9175E+01  0.9176E+01
      8.486  0.1487E+01  0.1489E+01  0.9588E+01  0.9589E+01
      8.760  0.1016E+01  0.1014E+01  0.9872E+01  0.9873E+01
      9.034  0.8941E+00  0.8935E+00  0.1012E+02  0.1012E+02
      9.308  0.5407E+00  0.5415E+00  0.1028E+02  0.1028E+02
      9.582  0.1276E+01  0.1282E+01  0.1063E+02  0.1063E+02
      9.856  0.2138E+01  0.2137E+01  0.1122E+02  0.1122E+02
     10.130  0.1495E+01  0.1495E+01  0.1164E+02  0.1164E+02
     10.404  0.1566E+01  0.1567E+01  0.1207E+02  0.1207E+02
     10.678  0.1863E+01  0.1862E+01  0.1259E+02  0.1259E+02
     10.952  0.1760E+01  0.1758E+01  0.1307E+02  0.1307E+02
     11.226  0.1309E+01  0.1308E+01  0.1344E+02  0.1344E+02
     11.500  0.6540E+00  0.6525E+00  0.1362E+02  0.1363E+02
     11.774  0.4955E+00  0.4960E+00  0.1377E+02  0.1377E+02
     12.049  0.4813E+00  0.4811E+00  0.1390E+02  0.1390E+02
     12.323  0.5262E+00  0.5263E+00  0.1405E+02  0.1405E+02
     12.597  0.7831E+00  0.7842E+00  0.1426E+02  0.1426E+02
     12.871  0.1193E+01  0.1194E+01  0.1459E+02  0.1459E+02
     13.145  0.1471E+01  0.1472E+01  0.1500E+02  0.1500E+02
     13.419  0.1792E+01  0.1792E+01  0.1550E+02  0.1550E+02
     13.693  0.2172E+01  0.2173E+01  0.1610E+02  0.1610E+02
     13.967  0.2380E+01  0.2380E+01  0.1676E+02  0.1676E+02
     14.241  0.2720E+01  0.2721E+01  0.1752E+02  0.1752E+02
     14.515  0.1332E+01  0.1331E+01  0.1789E+02  0.1789E+02
     14.789  0.1126E+01  0.1127E+01  0.1820E+02  0.1821E+02
     15.063  0.9488E+00  0.9481E+00  0.1847E+02  0.1847E+02
     15.337  0.6076E+00  0.6070E+00  0.1864E+02  0.1864E+02
     15.611  0.5603E+00  0.5597E+00  0.1879E+02  0.1879E+02
     15.885  0.2235E+00  0.2236E+00  0.1886E+02  0.1886E+02
     16.159  0.4419E+00  0.4418E+00  0.1898E+02  0.1898E+02
     16.433  0.2010E+00  0.2013E+00  0.1904E+02  0.1904E+02
     16.708  0.3079E+00  0.3085E+00  0.1912E+02  0.1912E+02
     16.982  0.4009E+00  0.4008E+00  0.1923E+02  0.1923E+02
     17.256  0.2442E+00  0.2435E+00  0.1930E+02  0.1930E+02
     17.530  0.1559E+00  0.1564E+00  0.1935E+02  0.1935E+02
     17.804  0.3450E+00  0.3451E+00  0.1944E+02  0.1944E+02
     18.078  0.2964E+00  0.2967E+00  0.1952E+02  0.1952E+02
     18.352  0.2283E+00  0.2280E+00  0.1959E+02  0.1959E+02
     18.626  0.1620E+00  0.1615E+00  0.1963E+02  0.1963E+02
     18.900  0.1989E+00  0.1992E+00  0.1969E+02  0.1969E+02
     19.174  0.2566E+00  0.2570E+00  0.1976E+02  0.1976E+02
     19.448  0.1360E+00  0.1353E+00  0.1979E+02  0.1979E+02
     19.722  0.1662E+00  0.1666E+00  0.1984E+02  0.1984E+02
     19.996  0.1538E+00  0.1533E+00  0.1988E+02  0.1988E+02
     20.270  0.9475E-01  0.9497E-01  0.1991E+02  0.1991E+02
     20.544  0.9961E-01  0.9951E-01  0.1994E+02  0.1994E+02
     20.818  0.7364E-01  0.7361E-01  0.1996E+02  0.1996E+02
     21.093  0.7092E-01  0.7056E-01  0.1998E+02  0.1998E+02
     21.367  0.1259E-01  0.1262E-01  0.1998E+02  0.1998E+02
     21.641  0.2823E-01  0.2851E-01  0.1999E+02  0.1999E+02
     21.915  0.3147E-01  0.3129E-01  0.2000E+02  0.2000E+02
     22.189  0.9821E-02  0.9716E-02  0.2000E+02  0.2000E+02
     22.463  0.0000E+00  0.0000E+00  0.2000E+02  0.2000E+02
     22.737  0.0000E+00  0.0000E+00  0.2000E+02  0.2000E+02
     23.011  0.0000E+00  0.0000E+00  0.2000E+02  0.2000E+02
     23.285  0.0000E+00  0.0000E+00  0.2000E+02  0.2000E+02
     23.559  0.0000E+00  0.0000E+00  0.2000E+02  0.2000E+02
     23.833  0.0000E+00  0.0000E+00  0.2000E+02  0.2000E+02
     24.107  0.0000E+00  0.0000E+00  0.2000E+02  0.2000E+02
     24.381  0.0000E+00  0.0000E+00  0.2000E+02  0.2000E+02
     24.655  0.0000E+00  0.0000E+00  0.2000E+02  0.2000E+02
     24.929  0.0000E+00  0.0000E+00  0.2000E+02  0.2000E+02
     25.203  0.0000E+00  0.0000E+00  0.2000E+02  0.2000E+02
     25.477  0.0000E+00  0.0000E+00  0.2000E+02  0.2000E+02
     25.752  0.0000E+00  0.0000E+00  0.2000E+02  0.2000E+02
     25.75155655    -56.46676318  301     10.90676746      1.00000000
    -56.467  0.0000E+00  0.0000E+00  0.0000E+00  0.0000E+00  0.0000E+00  0.0000E+00  0.0000E+00  0.0000E+00  0.0000E+00  0.0000E+00  0.0000E+00  0.0000E+00  0.0000E+00  0.0000E+00  0.0000E+00  0.0000E+00  0.0000E+00  0.0000E+00
    -56.193  0.0000E+00  0.0000E+00  0.0000E+00  0.0000E+00  0.0000E+00  0.0000E+00  0.0000E+00  0.0000E+00  0.0000E+00  0.0000E+00  0.0000E+00  0.0000E+00  0.0000E+00  0.0000E+00  0.0000E+00  0.0000E+00  0.0000E+00  0.0000E+00
    -55.919  0.0000E+00  0.0000E+00  0.0000E+00  0.0000E+00  0.0000E+00  0.0000E+00  0.0000E+00  0.0000E+00  0.0000E+00  0.0000E+00  0.0000E+00  0.0000E+00  0.0000E+00  0.0000E+00  0.0000E+00  0.0000E+00  0.0000E+00  0.0000E+00
    -55.645  0.0000E+00  0.0000E+00  0.0000E+00  0.0000E+00  0.0000E+00  0.0000E+00  0.0000E+00  0.0000E+00  0.0000E+00  0.0000E+00  0.0000E+00  0.0000E+00  0.0000E+00  0.0000E+00  0.0000E+00  0.0000E+00  0.0000E+00  0.0000E+00
    -55.371  0.0000E+00  0.0000E+00  0.0000E+00  0.0000E+00  0.0000E+00  0.0000E+00  0.0000E+00  0.0000E+00  0.0000E+00  0.0000E+00  0.0000E+00  0.0000E+00  0.0000E+00  0.0000E+00  0.0000E+00  0.0000E+00  0.0000E+00  0.0000E+00
    -55.096  0.0000E+00  0.0000E+00  0.0000E+00  0.0000E+00  0.0000E+00  0.0000E+00  0.0000E+00  0.0000E+00  0.0000E+00  0.0000E+00  0.0000E+00  0.0000E+00  0.0000E+00  0.0000E+00  0.0000E+00  0.0000E+00  0.0000E+00  0.0000E+00
    -54.822  0.0000E+00  0.0000E+00  0.0000E+00  0.0000E+00  0.0000E+00  0.0000E+00  0.0000E+00  0.0000E+00  0.0000E+00  0.0000E+00  0.0000E+00  0.0000E+00  0.0000E+00  0.0000E+00  0.0000E+00  0.0000E+00  0.0000E+00  0.0000E+00
    -54.548  0.0000E+00  0.0000E+00  0.0000E+00  0.0000E+00  0.0000E+00  0.0000E+00  0.0000E+00  0.0000E+00  0.0000E+00  0.0000E+00  0.0000E+00  0.0000E+00  0.0000E+00  0.0000E+00  0.0000E+00  0.0000E+00  0.0000E+00  0.0000E+00
    -54.274  0.0000E+00  0.0000E+00  0.0000E+00  0.0000E+00  0.0000E+00  0.0000E+00  0.0000E+00  0.0000E+00  0.0000E+00  0.0000E+00  0.0000E+00  0.0000E+00  0.0000E+00  0.0000E+00  0.0000E+00  0.0000E+00  0.0000E+00  0.0000E+00
    -54.000  0.0000E+00  0.0000E+00  0.0000E+00  0.0000E+00  0.0000E+00  0.0000E+00  0.0000E+00  0.0000E+00  0.0000E+00  0.0000E+00  0.0000E+00  0.0000E+00  0.0000E+00  0.0000E+00  0.0000E+00  0.0000E+00  0.0000E+00  0.0000E+00
    -53.726  0.0000E+00  0.0000E+00  0.0000E+00  0.0000E+00  0.0000E+00  0.0000E+00  0.0000E+00  0.0000E+00  0.0000E+00  0.0000E+00  0.0000E+00  0.0000E+00  0.0000E+00  0.0000E+00  0.0000E+00  0.0000E+00  0.0000E+00  0.0000E+00
    -53.452  0.0000E+00  0.0000E+00  0.0000E+00  0.0000E+00  0.0000E+00  0.0000E+00  0.0000E+00  0.0000E+00  0.0000E+00  0.0000E+00  0.0000E+00  0.0000E+00  0.0000E+00  0.0000E+00  0.0000E+00  0.0000E+00  0.0000E+00  0.0000E+00
    -53.178  0.1067E-04  0.1109E-04  0.2891E-09  0.3008E-09  0.2891E-09  0.3008E-09  0.2891E-09  0.3008E-09  0.6739E-10  0.7114E-10  0.6739E-10  0.7114E-10  0.4270E-11  0.4491E-11  0.6739E-10  0.7114E-10  0.4270E-11  0.4491E-11
    -52.904  0.2793E-02  0.2895E-02  0.7451E-07  0.7731E-07  0.7451E-07  0.7731E-07  0.7451E-07  0.7731E-07  0.2587E-07  0.2681E-07  0.2587E-07  0.2681E-07  0.1437E-08  0.1491E-08  0.2587E-07  0.2681E-07  0.1437E-08  0.1491E-08
    -52.630  0.3136E+00  0.3206E+00  0.9705E-05  0.9940E-05  0.9705E-05  0.9940E-05  0.9705E-05  0.9940E-05  0.4831E-05  0.4977E-05  0.4831E-05  0.4977E-05  0.2526E-06  0.2600E-06  0.4831E-05  0.4977E-05  0.2526E-06  0.2600E-06
    -52.356  0.2598E+01  0.2607E+01  0.5876E-04  0.5881E-04  0.5876E-04  0.5881E-04  0.5876E-04  0.5881E-04  0.8244E-04  0.8273E-04  0.8244E-04  0.8273E-04  0.3433E-05  0.3438E-05  0.8244E-04  0.8273E-04  0.3433E-05  0.3438E-05
    -52.082  0.6861E+00  0.6664E+00  0.1162E-04  0.1125E-04  0.1162E-04  0.1125E-04  0.1162E-04  0.1125E-04  0.1676E-04  0.1611E-04  0.1676E-04  0.1611E-04  0.6807E-06  0.6553E-06  0.1676E-04  0.1611E-04  0.6807E-06  0.6553E-06
    -51.808  0.0000E+00  0.0000E+00  0.0000E+00  0.0000E+00  0.0000E+00  0.0000E+00  0.0000E+00  0.0000E+00  0.0000E+00  0.0000E+00  0.0000E+00  0.0000E+00  0.0000E+00  0.0000E+00  0.0000E+00  0.0000E+00  0.0000E+00  0.0000E+00
    -51.534  0.0000E+00  0.0000E+00  0.0000E+00  0.0000E+00  0.0000E+00  0.0000E+00  0.0000E+00  0.0000E+00  0.0000E+00  0.0000E+00  0.0000E+00  0.0000E+00  0.0000E+00  0.0000E+00  0.0000E+00  0.0000E+00  0.0000E+00  0.0000E+00
    -51.260  0.0000E+00  0.0000E+00  0.0000E+00  0.0000E+00  0.0000E+00  0.0000E+00  0.0000E+00  0.0000E+00  0.0000E+00  0.0000E+00  0.0000E+00  0.0000E+00  0.0000E+00  0.0000E+00  0.0000E+00  0.0000E+00  0.0000E+00  0.0000E+00
    -50.986  0.0000E+00  0.0000E+00  0.0000E+00  0.0000E+00  0.0000E+00  0.0000E+00  0.0000E+00  0.0000E+00  0.0000E+00  0.0000E+00  0.0000E+00  0.0000E+00  0.0000E+00  0.0000E+00  0.0000E+00  0.0000E+00  0.0000E+00  0.0000E+00
    -50.711  0.0000E+00  0.0000E+00  0.0000E+00  0.0000E+00  0.0000E+00  0.0000E+00  0.0000E+00  0.0000E+00  0.0000E+00  0.0000E+00  0.0000E+00  0.0000E+00  0.0000E+00  0.0000E+00  0.0000E+00  0.0000E+00  0.0000E+00  0.0000E+00
    -50.437  0.0000E+00  0.0000E+00  0.0000E+00  0.0000E+00  0.0000E+00  0.0000E+00  0.0000E+00  0.0000E+00  0.0000E+00  0.0000E+00  0.0000E+00  0.0000E+00  0.0000E+00  0.0000E+00  0.0000E+00  0.0000E+00  0.0000E+00  0.0000E+00
    -50.163  0.0000E+00  0.0000E+00  0.0000E+00  0.0000E+00  0.0000E+00  0.0000E+00  0.0000E+00  0.0000E+00  0.0000E+00  0.0000E+00  0.0000E+00  0.0000E+00  0.0000E+00  0.0000E+00  0.0000E+00  0.0000E+00  0.0000E+00  0.0000E+00
    -49.889  0.0000E+00  0.0000E+00  0.0000E+00  0.0000E+00  0.0000E+00  0.0000E+00  0.0000E+00  0.0000E+00  0.0000E+00  0.0000E+00  0.0000E+00  0.0000E+00  0.0000E+00  0.0000E+00  0.0000E+00  0.0000E+00  0.0000E+00  0.0000E+00
    -49.615  0.0000E+00  0.0000E+00  0.0000E+00  0.0000E+00  0.0000E+00  0.0000E+00  0.0000E+00  0.0000E+00  0.0000E+00  0.0000E+00  0.0000E+00  0.0000E+00  0.0000E+00  0.0000E+00  0.0000E+00  0.0000E+00  0.0000E+00  0.0000E+00
    -49.341  0.0000E+00  0.0000E+00  0.0000E+00  0.0000E+00  0.0000E+00  0.0000E+00  0.0000E+00  0.0000E+00  0.0000E+00  0.0000E+00  0.0000E+00  0.0000E+00  0.0000E+00  0.0000E+00  0.0000E+00  0.0000E+00  0.0000E+00  0.0000E+00
    -49.067  0.0000E+00  0.0000E+00  0.0000E+00  0.0000E+00  0.0000E+00  0.0000E+00  0.0000E+00  0.0000E+00  0.0000E+00  0.0000E+00  0.0000E+00  0.0000E+00  0.0000E+00  0.0000E+00  0.0000E+00  0.0000E+00  0.0000E+00  0.0000E+00
    -48.793  0.0000E+00  0.0000E+00  0.0000E+00  0.0000E+00  0.0000E+00  0.0000E+00  0.0000E+00  0.0000E+00  0.0000E+00  0.0000E+00  0.0000E+00  0.0000E+00  0.0000E+00  0.0000E+00  0.0000E+00  0.0000E+00  0.0000E+00  0.0000E+00
    -48.519  0.0000E+00  0.0000E+00  0.0000E+00  0.0000E+00  0.0000E+00  0.0000E+00  0.0000E+00  0.0000E+00  0.0000E+00  0.0000E+00  0.0000E+00  0.0000E+00  0.0000E+00  0.0000E+00  0.0000E+00  0.0000E+00  0.0000E+00  0.0000E+00
    -48.245  0.0000E+00  0.0000E+00  0.0000E+00  0.0000E+00  0.0000E+00  0.0000E+00  0.0000E+00  0.0000E+00  0.0000E+00  0.0000E+00  0.0000E+00  0.0000E+00  0.0000E+00  0.0000E+00  0.0000E+00  0.0000E+00  0.0000E+00  0.0000E+00
    -47.971  0.0000E+00  0.0000E+00  0.0000E+00  0.0000E+00  0.0000E+00  0.0000E+00  0.0000E+00  0.0000E+00  0.0000E+00  0.0000E+00  0.0000E+00  0.0000E+00  0.0000E+00  0.0000E+00  0.0000E+00  0.0000E+00  0.0000E+00  0.0000E+00
    -47.697  0.0000E+00  0.0000E+00  0.0000E+00  0.0000E+00  0.0000E+00  0.0000E+00  0.0000E+00  0.0000E+00  0.0000E+00  0.0000E+00  0.0000E+00  0.0000E+00  0.0000E+00  0.0000E+00  0.0000E+00  0.0000E+00  0.0000E+00  0.0000E+00
    -47.423  0.0000E+00  0.0000E+00  0.0000E+00  0.0000E+00  0.0000E+00  0.0000E+00  0.0000E+00  0.0000E+00  0.0000E+00  0.0000E+00  0.0000E+00  0.0000E+00  0.0000E+00  0.0000E+00  0.0000E+00  0.0000E+00  0.0000E+00  0.0000E+00
    -47.149  0.0000E+00  0.0000E+00  0.0000E+00  0.0000E+00  0.0000E+00  0.0000E+00  0.0000E+00  0.0000E+00  0.0000E+00  0.0000E+00  0.0000E+00  0.0000E+00  0.0000E+00  0.0000E+00  0.0000E+00  0.0000E+00  0.0000E+00  0.0000E+00
    -46.875  0.0000E+00  0.0000E+00  0.0000E+00  0.0000E+00  0.0000E+00  0.0000E+00  0.0000E+00  0.0000E+00  0.0000E+00  0.0000E+00  0.0000E+00  0.0000E+00  0.0000E+00  0.0000E+00  0.0000E+00  0.0000E+00  0.0000E+00  0.0000E+00
    -46.601  0.0000E+00  0.0000E+00  0.0000E+00  0.0000E+00  0.0000E+00  0.0000E+00  0.0000E+00  0.0000E+00  0.0000E+00  0.0000E+00  0.0000E+00  0.0000E+00  0.0000E+00  0.0000E+00  0.0000E+00  0.0000E+00  0.0000E+00  0.0000E+00
    -46.327  0.0000E+00  0.0000E+00  0.0000E+00  0.0000E+00  0.0000E+00  0.0000E+00  0.0000E+00  0.0000E+00  0.0000E+00  0.0000E+00  0.0000E+00  0.0000E+00  0.0000E+00  0.0000E+00  0.0000E+00  0.0000E+00  0.0000E+00  0.0000E+00
    -46.052  0.0000E+00  0.0000E+00  0.0000E+00  0.0000E+00  0.0000E+00  0.0000E+00  0.0000E+00  0.0000E+00  0.0000E+00  0.0000E+00  0.0000E+00  0.0000E+00  0.0000E+00  0.0000E+00  0.0000E+00  0.0000E+00  0.0000E+00  0.0000E+00
    -45.778  0.0000E+00  0.0000E+00  0.0000E+00  0.0000E+00  0.0000E+00  0.0000E+00  0.0000E+00  0.0000E+00  0.0000E+00  0.0000E+00  0.0000E+00  0.0000E+00  0.0000E+00  0.0000E+00  0.0000E+00  0.0000E+00  0.0000E+00  0.0000E+00
    -45.504  0.0000E+00  0.0000E+00  0.0000E+00  0.0000E+00  0.0000E+00  0.0000E+00  0.0000E+00  0.0000E+00  0.0000E+00  0.0000E+00  0.0000E+00  0.0000E+00  0.0000E+00  0.0000E+00  0.0000E+00  0.0000E+00  0.0000E+00  0.0000E+00
    -45.230  0.0000E+00  0.0000E+00  0.0000E+00  0.0000E+00  0.0000E+00  0.0000E+00  0.0000E+00  0.0000E+00  0.0000E+00  0.0000E+00  0.0000E+00  0.0000E+00  0.0000E+00  0.0000E+00  0.0000E+00  0.0000E+00  0.0000E+00  0.0000E+00
    -44.956  0.0000E+00  0.0000E+00  0.0000E+00  0.0000E+00  0.0000E+00  0.0000E+00  0.0000E+00  0.0000E+00  0.0000E+00  0.0000E+00  0.0000E+00  0.0000E+00  0.0000E+00  0.0000E+00  0.0000E+00  0.0000E+00  0.0000E+00  0.0000E+00
    -44.682  0.0000E+00  0.0000E+00  0.0000E+00  0.0000E+00  0.0000E+00  0.0000E+00  0.0000E+00  0.0000E+00  0.0000E+00  0.0000E+00  0.0000E+00  0.0000E+00  0.0000E+00  0.0000E+00  0.0000E+00  0.0000E+00  0.0000E+00  0.0000E+00
    -44.408  0.0000E+00  0.0000E+00  0.0000E+00  0.0000E+00  0.0000E+00  0.0000E+00  0.0000E+00  0.0000E+00  0.0000E+00  0.0000E+00  0.0000E+00  0.0000E+00  0.0000E+00  0.0000E+00  0.0000E+00  0.0000E+00  0.0000E+00  0.0000E+00
    -44.134  0.0000E+00  0.0000E+00  0.0000E+00  0.0000E+00  0.0000E+00  0.0000E+00  0.0000E+00  0.0000E+00  0.0000E+00  0.0000E+00  0.0000E+00  0.0000E+00  0.0000E+00  0.0000E+00  0.0000E+00  0.0000E+00  0.0000E+00  0.0000E+00
    -43.860  0.0000E+00  0.0000E+00  0.0000E+00  0.0000E+00  0.0000E+00  0.0000E+00  0.0000E+00  0.0000E+00  0.0000E+00  0.0000E+00  0.0000E+00  0.0000E+00  0.0000E+00  0.0000E+00  0.0000E+00  0.0000E+00  0.0000E+00  0.0000E+00
    -43.586  0.0000E+00  0.0000E+00  0.0000E+00  0.0000E+00  0.0000E+00  0.0000E+00  0.0000E+00  0.0000E+00  0.0000E+00  0.0000E+00  0.0000E+00  0.0000E+00  0.0000E+00  0.0000E+00  0.0000E+00  0.0000E+00  0.0000E+00  0.0000E+00
    -43.312  0.0000E+00  0.0000E+00  0.0000E+00  0.0000E+00  0.0000E+00  0.0000E+00  0.0000E+00  0.0000E+00  0.0000E+00  0.0000E+00  0.0000E+00  0.0000E+00  0.0000E+00  0.0000E+00  0.0000E+00  0.0000E+00  0.0000E+00  0.0000E+00
    -43.038  0.0000E+00  0.0000E+00  0.0000E+00  0.0000E+00  0.0000E+00  0.0000E+00  0.0000E+00  0.0000E+00  0.0000E+00  0.0000E+00  0.0000E+00  0.0000E+00  0.0000E+00  0.0000E+00  0.0000E+00  0.0000E+00  0.0000E+00  0.0000E+00
    -42.764  0.0000E+00  0.0000E+00  0.0000E+00  0.0000E+00  0.0000E+00  0.0000E+00  0.0000E+00  0.0000E+00  0.0000E+00  0.0000E+00  0.0000E+00  0.0000E+00  0.0000E+00  0.0000E+00  0.0000E+00  0.0000E+00  0.0000E+00  0.0000E+00