   2   2   1   0
  0.1267340E+02  0.2937477E-09  0.2937477E-09  0.2937477E-09  0.5000000E-15
  1.000000000000000E-004
  CAR 
 unknown system                          
     25.00996444    -56.89201217  301     10.49487971      1.00000000
    -56.892  0.0000E+00  0.0000E+00  0.0000E+00  0.0000E+00
    -56.619  0.0000E+00  0.0000E+00  0.0000E+00  0.0000E+00
    -56.346  0.0000E+00  0.0000E+00  0.0000E+00  0.0000E+00
    -56.073  0.0000E+00  0.0000E+00  0.0000E+00  0.0000E+00
    -55.800  0.0000E+00  0.0000E+00  0.0000E+00  0.0000E+00
    -55.527  0.0000E+00  0.0000E+00  0.0000E+00  0.0000E+00
    -55.254  0.0000E+00  0.0000E+00  0.0000E+00  0.0000E+00
    -54.981  0.0000E+00  0.0000E+00  0.0000E+00  0.0000E+00
    -54.708  0.0000E+00  0.0000E+00  0.0000E+00  0.0000E+00
    -54.435  0.0000E+00  0.0000E+00  0.0000E+00  0.0000E+00
    -54.162  0.0000E+00  0.0000E+00  0.0000E+00  0.0000E+00
    -53.889  0.0000E+00  0.0000E+00  0.0000E+00  0.0000E+00
    -53.616  0.2849E-04  0.2926E-04  0.7777E-05  0.7989E-05
    -53.343  0.7283E-02  0.7480E-02  0.1996E-02  0.2050E-02
    -53.070  0.8211E+00  0.8351E+00  0.2262E+00  0.2301E+00
    -52.797  0.5594E+01  0.5597E+01  0.1753E+01  0.1758E+01
    -52.524  0.8096E+00  0.7857E+00  0.1999E+01  0.1999E+01
    -52.251  0.0000E+00  0.0000E+00  0.2000E+01  0.2000E+01
    -51.978  0.0000E+00  0.0000E+00  0.2000E+01  0.2000E+01
    -51.705  0.0000E+00  0.0000E+00  0.2000E+01  0.2000E+01
    -51.432  0.0000E+00  0.0000E+00  0.2000E+01  0.2000E+01
    -51.159  0.0000E+00  0.0000E+00  0.2000E+01  0.2000E+01
    -50.886  0.0000E+00  0.0000E+00  0.2000E+01  0.2000E+01
    -50.613  0.0000E+00  0.0000E+00  0.2000E+01  0.2000E+01
    -50.340  0.0000E+00  0.0000E+00  0.2000E+01  0.2000E+01
    -50.067  0.0000E+00  0.0000E+00  0.2000E+01  0.2000E+01
    -49.794  0.0000E+00  0.0000E+00  0.2000E+01  0.2000E+01
    -49.521  0.0000E+00  0.0000E+00  0.2000E+01  0.2000E+01
    -49.248  0.0000E+00  0.0000E+00  0.2000E+01  0.2000E+01
    -48.975  0.0000E+00  0.0000E+00  0.2000E+01  0.2000E+01
    -48.702  0.0000E+00  0.0000E+00  0.2000E+01  0.2000E+01
    -48.429  0.0000E+00  0.0000E+00  0.2000E+01  0.2000E+01
    -48.156  0.0000E+00  0.0000E+00  0.2000E+01  0.2000E+01
    -47.883  0.0000E+00  0.0000E+00  0.2000E+01  0.2000E+01
    -47.610  0.0000E+00  0.0000E+00  0.2000E+01  0.2000E+01
    -47.337  0.0000E+00  0.0000E+00  0.2000E+01  0.2000E+01
    -47.064  0.0000E+00  0.0000E+00  0.2000E+01  0.2000E+01
    -46.791  0.0000E+00  0.0000E+00  0.2000E+01  0.2000E+01
    -46.518  0.0000E+00  0.0000E+00  0.2000E+01  0.2000E+01
    -46.245  0.0000E+00  0.0000E+00  0.2000E+01  0.2000E+01
    -45.972  0.0000E+00  0.0000E+00  0.2000E+01  0.2000E+01
    -45.699  0.0000E+00  0.0000E+00  0.2000E+01  0.2000E+01
    -45.426  0.0000E+00  0.0000E+00  0.2000E+01  0.2000E+01
    -45.153  0.0000E+00  0.0000E+00  0.2000E+01  0.2000E+01
    -44.880  0.0000E+00  0.0000E+00  0.2000E+01  0.2000E+01
    -44.607  0.0000E+00  0.0000E+00  0.2000E+01  0.2000E+01
    -44.334  0.0000E+00  0.0000E+00  0.2000E+01  0.2000E+01
    -44.061  0.0000E+00  0.0000E+00  0.2000E+01  0.2000E+01
    -43.788  0.0000E+00  0.0000E+00  0.2000E+01  0.2000E+01
    -43.515  0.0000E+00  0.0000E+00  0.2000E+01  0.2000E+01
    -43.242  0.0000E+00  0.0000E+00  0.2000E+01  0.2000E+01
    -42.969  0.0000E+00  0.0000E+00  0.2000E+01  0.2000E+01
    -42.696  0.0000E+00  0.0000E+00  0.2000E+01  0.2000E+01
    -42.423  0.0000E+00  0.0000E+00  0.2000E+01  0.2000E+01
    -42.150  0.0000E+00  0.0000E+00  0.2000E+01  0.2000E+01
    -41.877  0.0000E+00  0.0000E+00  0.2000E+01  0.2000E+01
    -41.604  0.0000E+00  0.0000E+00  0.2000E+01  0.2000E+01
    -41.331  0.0000E+00  0.0000E+00  0.2000E+01  0.2000E+01
    -41.058  0.0000E+00  0.0000E+00  0.2000E+01  0.2000E+01
    -40.785  0.0000E+00  0.0000E+00  0.2000E+01  0.2000E+01
    -40.512  0.0000E+00  0.0000E+00  0.2000E+01  0.2000E+01
    -40.239  0.0000E+00  0.0000E+00  0.2000E+01  0.2000E+01
    -39.966  0.0000E+00  0.0000E+00  0.2000E+01  0.2000E+01
    -39.693  0.0000E+00  0.0000E+00  0.2000E+01  0.2000E+01
    -39.420  0.0000E+00  0.0000E+00  0.2000E+01  0.2000E+01
    -39.147  0.0000E+00  0.0000E+00  0.2000E+01  0.2000E+01
    -38.874  0.0000E+00  0.0000E+00  0.2000E+01  0.2000E+01
    -38.601  0.0000E+00  0.0000E+00  0.2000E+01  0.2000E+01
    -38.328  0.0000E+00  0.0000E+00  0.2000E+01  0.2000E+01
    -38.055  0.0000E+00  0.0000E+00  0.2000E+01  0.2000E+01
    -37.782  0.0000E+00  0.0000E+00  0.2000E+01  0.2000E+01
    -37.509  0.0000E+00  0.0000E+00  0.2000E+01  0.2000E+01
    -37.236  0.0000E+00  0.0000E+00  0.2000E+01  0.2000E+01
    -36.963  0.0000E+00  0.0000E+00  0.2000E+01  0.2000E+01
    -36.690  0.0000E+00  0.0000E+00  0.2000E+01  0.2000E+01
    -36.417  0.0000E+00  0.0000E+00  0.2000E+01  0.2000E+01
    -36.144  0.0000E+00  0.0000E+00  0.2000E+01  0.2000E+01
    -35.871  0.0000E+00  0.0000E+00  0.2000E+01  0.2000E+01
    -35.597  0.0000E+00  0.0000E+00  0.2000E+01  0.2000E+01
    -35.324  0.0000E+00  0.0000E+00  0.2000E+01  0.2000E+01
    -35.051  0.0000E+00  0.0000E+00  0.2000E+01  0.2000E+01
    -34.778  0.0000E+00  0.0000E+00  0.2000E+01  0.2000E+01
    -34.505  0.0000E+00  0.0000E+00  0.2000E+01  0.2000E+01
    -34.232  0.0000E+00  0.0000E+00  0.2000E+01  0.2000E+01
    -33.959  0.0000E+00  0.0000E+00  0.2000E+01  0.2000E+01
    -33.686  0.0000E+00  0.0000E+00  0.2000E+01  0.2000E+01
    -33.413  0.0000E+00  0.0000E+00  0.2000E+01  0.2000E+01
    -33.140  0.0000E+00  0.0000E+00  0.2000E+01  0.2000E+01
    -32.867  0.0000E+00  0.0000E+00  0.2000E+01  0.2000E+01
    -32.594  0.0000E+00  0.0000E+00  0.2000E+01  0.2000E+01
    -32.321  0.0000E+00  0.0000E+00  0.2000E+01  0.2000E+01
    -32.048  0.0000E+00  0.0000E+00  0.2000E+01  0.2000E+01
    -31.775  0.0000E+00  0.0000E+00  0.2000E+01  0.2000E+01
    -31.502  0.0000E+00  0.0000E+00  0.2000E+01  0.2000E+01
    -31.229  0.0000E+00  0.0000E+00  0.2000E+01  0.2000E+01
    -30.956  0.0000E+00  0.0000E+00  0.2000E+01  0.2000E+01
    -30.683  0.0000E+00  0.0000E+00  0.2000E+01  0.2000E+01
    -30.410  0.0000E+00  0.0000E+00  0.2000E+01  0.2000E+01
    -30.137  0.0000E+00  0.0000E+00  0.2000E+01  0.2000E+01
    -29.864  0.0000E+00  0.0000E+00  0.2000E+01  0.2000E+01
    -29.591  0.0000E+00  0.0000E+00  0.2000E+01  0.2000E+01
    -29.318  0.0000E+00  0.0000E+00  0.2000E+01  0.2000E+01
    -29.045  0.0000E+00  0.0000E+00  0.2000E+01  0.2000E+01
    -28.772  0.0000E+00  0.0000E+00  0.2000E+01  0.2000E+01
    -28.499  0.0000E+00  0.0000E+00  0.2000E+01  0.2000E+01
    -28.226  0.0000E+00  0.0000E+00  0.2000E+01  0.2000E+01
    -27.953  0.1216E-04  0.1238E-04  0.2000E+01  0.2000E+01
    -27.680  0.3242E-02  0.3301E-02  0.2001E+01  0.2001E+01
    -27.407  0.4954E+00  0.5017E+00  0.2136E+01  0.2138E+01
    -27.134  0.4354E+01  0.4363E+01  0.3325E+01  0.3329E+01
    -26.861  0.4267E+01  0.4270E+01  0.4506E+01  0.4511E+01
    -26.588  0.6023E+01  0.6029E+01  0.6168E+01  0.6174E+01
    -26.315  0.6118E+01  0.6100E+01  0.7862E+01  0.7864E+01
    -26.042  0.3775E+00  0.3718E+00  0.7999E+01  0.7999E+01
    -25.769  0.0000E+00  0.0000E+00  0.8000E+01  0.8000E+01
    -25.496  0.0000E+00  0.0000E+00  0.8000E+01  0.8000E+01
    -25.223  0.0000E+00  0.0000E+00  0.8000E+01  0.8000E+01
    -24.950  0.0000E+00  0.0000E+00  0.8000E+01  0.8000E+01
    -24.677  0.0000E+00  0.0000E+00  0.8000E+01  0.8000E+01
    -24.404  0.0000E+00  0.0000E+00  0.8000E+01  0.8000E+01
    -24.131  0.0000E+00  0.0000E+00  0.8000E+01  0.8000E+01
    -23.858  0.0000E+00  0.0000E+00  0.8000E+01  0.8000E+01
    -23.585  0.0000E+00  0.0000E+00  0.8000E+01  0.8000E+01
    -23.312  0.0000E+00  0.0000E+00  0.8000E+01  0.8000E+01
    -23.039  0.0000E+00  0.0000E+00  0.8000E+01  0.8000E+01
    -22.766  0.0000E+00  0.0000E+00  0.8000E+01  0.8000E+01
    -22.493  0.0000E+00  0.0000E+00  0.8000E+01  0.8000E+01
    -22.220  0.0000E+00  0.0000E+00  0.8000E+01  0.8000E+01
    -21.947  0.0000E+00  0.0000E+00  0.8000E+01  0.8000E+01
    -21.674  0.0000E+00  0.0000E+00  0.8000E+01  0.8000E+01
    -21.401  0.0000E+00  0.0000E+00  0.8000E+01  0.8000E+01
    -21.128  0.0000E+00  0.0000E+00  0.8000E+01  0.8000E+01
    -20.855  0.0000E+00  0.0000E+00  0.8000E+01  0.8000E+01
    -20.582  0.0000E+00  0.0000E+00  0.8000E+01  0.8000E+01
    -20.309  0.0000E+00  0.0000E+00  0.8000E+01  0.8000E+01
    -20.036  0.0000E+00  0.0000E+00  0.8000E+01  0.8000E+01
    -19.763  0.0000E+00  0.0000E+00  0.8000E+01  0.8000E+01
    -19.490  0.0000E+00  0.0000E+00  0.8000E+01  0.8000E+01
    -19.217  0.0000E+00  0.0000E+00  0.8000E+01  0.8000E+01
    -18.944  0.0000E+00  0.0000E+00  0.8000E+01  0.8000E+01
    -18.671  0.0000E+00  0.0000E+00  0.8000E+01  0.8000E+01
    -18.398  0.0000E+00  0.0000E+00  0.8000E+01  0.8000E+01
    -18.125  0.0000E+00  0.0000E+00  0.8000E+01  0.8000E+01
    -17.852  0.0000E+00  0.0000E+00  0.8000E+01  0.8000E+01
    -17.579  0.0000E+00  0.0000E+00  0.8000E+01  0.8000E+01
    -17.306  0.0000E+00  0.0000E+00  0.8000E+01  0.8000E+01
    -17.033  0.0000E+00  0.0000E+00  0.8000E+01  0.8000E+01
    -16.760  0.0000E+00  0.0000E+00  0.8000E+01  0.8000E+01
    -16.487  0.0000E+00  0.0000E+00  0.8000E+01  0.8000E+01
    -16.214  0.0000E+00  0.0000E+00  0.8000E+01  0.8000E+01
    -15.941  0.0000E+00  0.0000E+00  0.8000E+01  0.8000E+01
    -15.668  0.0000E+00  0.0000E+00  0.8000E+01  0.8000E+01
    -15.395  0.0000E+00  0.0000E+00  0.8000E+01  0.8000E+01
    -15.122  0.0000E+00  0.0000E+00  0.8000E+01  0.8000E+01
    -14.849  0.0000E+00  0.0000E+00  0.8000E+01  0.8000E+01
    -14.576  0.0000E+00  0.0000E+00  0.8000E+01  0.8000E+01
    -14.303  0.0000E+00  0.0000E+00  0.8000E+01  0.8000E+01
    -14.030  0.0000E+00  0.0000E+00  0.8000E+01  0.8000E+01
    -13.757  0.0000E+00  0.0000E+00  0.8000E+01  0.8000E+01
    -13.484  0.0000E+00  0.0000E+00  0.8000E+01  0.8000E+01
    -13.211  0.0000E+00  0.0000E+00  0.8000E+01  0.8000E+01
    -12.938  0.0000E+00  0.0000E+00  0.8000E+01  0.8000E+01
    -12.665  0.0000E+00  0.0000E+00  0.8000E+01  0.8000E+01
    -12.392  0.0000E+00  0.0000E+00  0.8000E+01  0.8000E+01
    -12.119  0.0000E+00  0.0000E+00  0.8000E+01  0.8000E+01
    -11.846  0.0000E+00  0.0000E+00  0.8000E+01  0.8000E+01
    -11.573  0.0000E+00  0.0000E+00  0.8000E+01  0.8000E+01
    -11.300  0.0000E+00  0.0000E+00  0.8000E+01  0.8000E+01
    -11.027  0.0000E+00  0.0000E+00  0.8000E+01  0.8000E+01
    -10.754  0.0000E+00  0.0000E+00  0.8000E+01  0.8000E+01
    -10.481  0.0000E+00  0.0000E+00  0.8000E+01  0.8000E+01
    -10.208  0.0000E+00  0.0000E+00  0.8000E+01  0.8000E+01
     -9.935  0.0000E+00  0.0000E+00  0.8000E+01  0.8000E+01
     -9.662  0.0000E+00  0.0000E+00  0.8000E+01  0.8000E+01
     -9.389  0.0000E+00  0.0000E+00  0.8000E+01  0.8000E+01
     -9.116  0.0000E+00  0.0000E+00  0.8000E+01  0.8000E+01
     -8.843  0.0000E+00  0.0000E+00  0.8000E+01  0.8000E+01
     -8.570  0.0000E+00  0.0000E+00  0.8000E+01  0.8000E+01
     -8.297  0.0000E+00  0.0000E+00  0.8000E+01  0.8000E+01
     -8.024  0.0000E+00  0.0000E+00  0.8000E+01  0.8000E+01
     -7.751  0.0000E+00  0.0000E+00  0.8000E+01  0.8000E+01
     -7.478  0.0000E+00  0.0000E+00  0.8000E+01  0.8000E+01
     -7.205  0.0000E+00  0.0000E+00  0.8000E+01  0.8000E+01
     -6.932  0.0000E+00  0.0000E+00  0.8000E+01  0.8000E+01
     -6.659  0.0000E+00  0.0000E+00  0.8000E+01  0.8000E+01
     -6.386  0.0000E+00  0.0000E+00  0.8000E+01  0.8000E+01
     -6.113  0.0000E+00  0.0000E+00  0.8000E+01  0.8000E+01
     -5.840  0.0000E+00  0.0000E+00  0.8000E+01  0.8000E+01
     -5.567  0.0000E+00  0.0000E+00  0.8000E+01  0.8000E+01
     -5.294  0.0000E+00  0.0000E+00  0.8000E+01  0.8000E+01
     -5.021  0.0000E+00  0.0000E+00  0.8000E+01  0.8000E+01
     -4.748  0.0000E+00  0.0000E+00  0.8000E+01  0.8000E+01
     -4.475  0.0000E+00  0.0000E+00  0.8000E+01  0.8000E+01
     -4.202  0.0000E+00  0.0000E+00  0.8000E+01  0.8000E+01
     -3.929  0.0000E+00  0.0000E+00  0.8000E+01  0.8000E+01
     -3.656  0.0000E+00  0.0000E+00  0.8000E+01  0.8000E+01
     -3.383  0.0000E+00  0.0000E+00  0.8000E+01  0.8000E+01
     -3.110  0.0000E+00  0.0000E+00  0.8000E+01  0.8000E+01
     -2.837  0.0000E+00  0.0000E+00  0.8000E+01  0.8000E+01
     -2.564  0.0000E+00  0.0000E+00  0.8000E+01  0.8000E+01
     -2.291  0.0000E+00  0.0000E+00  0.8000E+01  0.8000E+01
     -2.018  0.0000E+00  0.0000E+00  0.8000E+01  0.8000E+01
     -1.745  0.0000E+00  0.0000E+00  0.8000E+01  0.8000E+01
     -1.472  0.0000E+00  0.0000E+00  0.8000E+01  0.8000E+01
     -1.199  0.0000E+00  0.0000E+00  0.8000E+01  0.8000E+01
     -0.926  0.0000E+00  0.0000E+00  0.8000E+01  0.8000E+01
     -0.653  0.0000E+00  0.0000E+00  0.8000E+01  0.8000E+01
     -0.380  0.0000E+00  0.0000E+00  0.8000E+01  0.8000E+01
     -0.107  0.0000E+00  0.0000E+00  0.8000E+01  0.8000E+01
      0.166  0.0000E+00  0.0000E+00  0.8000E+01  0.8000E+01
      0.439  0.0000E+00  0.0000E+00  0.8000E+01  0.8000E+01
      0.712  0.0000E+00  0.0000E+00  0.8000E+01  0.8000E+01
      0.985  0.0000E+00  0.0000E+00  0.8000E+01  0.8000E+01
      1.258  0.0000E+00  0.0000E+00  0.8000E+01  0.8000E+01
      1.531  0.0000E+00  0.0000E+00  0.8000E+01  0.8000E+01
      1.804  0.0000E+00  0.0000E+00  0.8000E+01  0.8000E+01
      2.077  0.0000E+00  0.0000E+00  0.8000E+01  0.8000E+01
      2.350  0.0000E+00  0.0000E+00  0.8000E+01  0.8000E+01
      2.623  0.0000E+00  0.0000E+00  0.8000E+01  0.8000E+01
      2.896  0.0000E+00  0.0000E+00  0.8000E+01  0.8000E+01
      3.169  0.8719E-08  0.8889E-08  0.8000E+01  0.8000E+01
      3.442  0.3168E-05  0.3229E-05  0.8000E+01  0.8000E+01
      3.715  0.6333E-03  0.6439E-03  0.8000E+01  0.8000E+01
      3.988  0.1607E-01  0.1618E-01  0.8005E+01  0.8005E+01
      4.261  0.3387E-01  0.3388E-01  0.8014E+01  0.8014E+01
      4.534  0.6662E-01  0.6673E-01  0.8032E+01  0.8032E+01
      4.807  0.4649E-01  0.4659E-01  0.8045E+01  0.8045E+01
      5.080  0.9720E-01  0.9723E-01  0.8072E+01  0.8072E+01
      5.353  0.9383E-01  0.9400E-01  0.8098E+01  0.8098E+01
      5.626  0.8348E-01  0.8338E-01  0.8121E+01  0.8121E+01
      5.900  0.1621E+00  0.1623E+00  0.8165E+01  0.8165E+01
      6.173  0.1405E+00  0.1405E+00  0.8204E+01  0.8204E+01
      6.446  0.1663E+00  0.1666E+00  0.8250E+01  0.8250E+01
      6.719  0.2277E+00  0.2283E+00  0.8313E+01  0.8313E+01
      6.992  0.2933E+00  0.2932E+00  0.8393E+01  0.8394E+01
      7.265  0.5879E+00  0.5893E+00  0.8555E+01  0.8556E+01
      7.538  0.9494E+00  0.9495E+00  0.8816E+01  0.8817E+01
      7.811  0.1001E+01  0.1001E+01  0.9093E+01  0.9093E+01
      8.084  0.1403E+01  0.1405E+01  0.9479E+01  0.9480E+01
      8.357  0.1232E+01  0.1230E+01  0.9821E+01  0.9821E+01
      8.630  0.9453E+00  0.9454E+00  0.1008E+02  0.1009E+02
      8.903  0.5303E+00  0.5301E+00  0.1023E+02  0.1023E+02
      9.176  0.1073E+01  0.1076E+01  0.1053E+02  0.1053E+02
      9.449  0.2193E+01  0.2193E+01  0.1113E+02  0.1113E+02
      9.722  0.1658E+01  0.1657E+01  0.1159E+02  0.1159E+02
      9.995  0.1638E+01  0.1639E+01  0.1205E+02  0.1205E+02
     10.268  0.1903E+01  0.1904E+01  0.1257E+02  0.1257E+02
     10.541  0.1833E+01  0.1833E+01  0.1308E+02  0.1308E+02
     10.814  0.1358E+01  0.1357E+01  0.1345E+02  0.1345E+02
     11.087  0.6554E+00  0.6546E+00  0.1364E+02  0.1364E+02
     11.360  0.5510E+00  0.5512E+00  0.1379E+02  0.1379E+02
     11.633  0.4578E+00  0.4576E+00  0.1392E+02  0.1392E+02
     11.906  0.5688E+00  0.5691E+00  0.1407E+02  0.1407E+02
     12.179  0.8653E+00  0.8660E+00  0.1431E+02  0.1431E+02
     12.452  0.1289E+01  0.1284E+01  0.1467E+02  0.1467E+02
     12.725  0.1636E+01  0.1636E+01  0.1512E+02  0.1512E+02
     12.998  0.1939E+01  0.1939E+01  0.1565E+02  0.1565E+02
     13.271  0.2323E+01  0.2323E+01  0.1630E+02  0.1630E+02
     13.544  0.2836E+01  0.2837E+01  0.1708E+02  0.1708E+02
     13.817  0.2274E+01  0.2272E+01  0.1771E+02  0.1771E+02
     14.090  0.1156E+01  0.1156E+01  0.1804E+02  0.1804E+02
     14.363  0.1110E+01  0.1110E+01  0.1835E+02  0.1835E+02
     14.636  0.7944E+00  0.7941E+00  0.1857E+02  0.1857E+02
     14.909  0.6140E+00  0.6143E+00  0.1874E+02  0.1874E+02
     15.182  0.3210E+00  0.3204E+00  0.1883E+02  0.1883E+02
     15.455  0.3973E+00  0.3980E+00  0.1894E+02  0.1894E+02
     15.728  0.2781E+00  0.2776E+00  0.1902E+02  0.1902E+02
     16.001  0.2879E+00  0.2882E+00  0.1910E+02  0.1910E+02
     16.274  0.4003E+00  0.4004E+00  0.1921E+02  0.1921E+02
     16.547  0.3082E+00  0.3078E+00  0.1929E+02  0.1929E+02
     16.820  0.1478E+00  0.1479E+00  0.1934E+02  0.1934E+02
     17.093  0.3336E+00  0.3340E+00  0.1943E+02  0.1943E+02
     17.366  0.2951E+00  0.2954E+00  0.1951E+02  0.1951E+02
     17.639  0.2455E+00  0.2452E+00  0.1958E+02  0.1958E+02
     17.912  0.1756E+00  0.1753E+00  0.1963E+02  0.1963E+02
     18.185  0.2002E+00  0.2004E+00  0.1968E+02  0.1968E+02
     18.458  0.2571E+00  0.2573E+00  0.1975E+02  0.1975E+02
     18.731  0.1476E+00  0.1472E+00  0.1979E+02  0.1979E+02
     19.004  0.1693E+00  0.1696E+00  0.1984E+02  0.1984E+02
     19.277  0.1530E+00  0.1527E+00  0.1988E+02  0.1988E+02
     19.550  0.9937E-01  0.9952E-01  0.1991E+02  0.1991E+02
     19.823  0.9653E-01  0.9651E-01  0.1994E+02  0.1994E+02
     20.096  0.7729E-01  0.7730E-01  0.1996E+02  0.1996E+02
     20.369  0.6849E-01  0.6820E-01  0.1998E+02  0.1998E+02
     20.642  0.1216E-01  0.1217E-01  0.1998E+02  0.1998E+02
     20.915  0.3178E-01  0.3201E-01  0.1999E+02  0.1999E+02
     21.188  0.2908E-01  0.2893E-01  0.2000E+02  0.2000E+02
     21.461  0.8986E-02  0.8894E-02  0.2000E+02  0.2000E+02
     21.734  0.0000E+00  0.0000E+00  0.2000E+02  0.2000E+02
     22.007  0.0000E+00  0.0000E+00  0.2000E+02  0.2000E+02
     22.280  0.0000E+00  0.0000E+00  0.2000E+02  0.2000E+02
     22.553  0.0000E+00  0.0000E+00  0.2000E+02  0.2000E+02
     22.826  0.0000E+00  0.0000E+00  0.2000E+02  0.2000E+02
     23.099  0.0000E+00  0.0000E+00  0.2000E+02  0.2000E+02
     23.372  0.0000E+00  0.0000E+00  0.2000E+02  0.2000E+02
     23.645  0.0000E+00  0.0000E+00  0.2000E+02  0.2000E+02
     23.918  0.0000E+00  0.0000E+00  0.2000E+02  0.2000E+02
     24.191  0.0000E+00  0.0000E+00  0.2000E+02  0.2000E+02
     24.464  0.0000E+00  0.0000E+00  0.2000E+02  0.2000E+02
     24.737  0.0000E+00  0.0000E+00  0.2000E+02  0.2000E+02
     25.010  0.0000E+00  0.0000E+00  0.2000E+02  0.2000E+02
     25.00996444    -56.89201217  301     10.49487971      1.00000000
    -56.892  0.0000E+00  0.0000E+00  0.0000E+00  0.0000E+00  0.0000E+00  0.0000E+00  0.0000E+00  0.0000E+00  0.0000E+00  0.0000E+00  0.0000E+00  0.0000E+00  0.0000E+00  0.0000E+00  0.0000E+00  0.0000E+00  0.0000E+00  0.0000E+00
    -56.619  0.0000E+00  0.0000E+00  0.0000E+00  0.0000E+00  0.0000E+00  0.0000E+00  0.0000E+00  0.0000E+00  0.0000E+00  0.0000E+00  0.0000E+00  0.0000E+00  0.0000E+00  0.0000E+00  0.0000E+00  0.0000E+00  0.0000E+00  0.0000E+00
    -56.346  0.0000E+00  0.0000E+00  0.0000E+00  0.0000E+00  0.0000E+00  0.0000E+00  0.0000E+00  0.0000E+00  0.0000E+00  0.0000E+00  0.0000E+00  0.0000E+00  0.0000E+00  0.0000E+00  0.0000E+00  0.0000E+00  0.0000E+00  0.0000E+00
    -56.073  0.0000E+00  0.0000E+00  0.0000E+00  0.0000E+00  0.0000E+00  0.0000E+00  0.0000E+00  0.0000E+00  0.0000E+00  0.0000E+00  0.0000E+00  0.0000E+00  0.0000E+00  0.0000E+00  0.0000E+00  0.0000E+00  0.0000E+00  0.0000E+00
    -55.800  0.0000E+00  0.0000E+00  0.0000E+00  0.0000E+00  0.0000E+00  0.0000E+00  0.0000E+00  0.0000E+00  0.0000E+00  0.0000E+00  0.0000E+00  0.0000E+00  0.0000E+00  0.0000E+00  0.0000E+00  0.0000E+00  0.0000E+00  0.0000E+00
    -55.527  0.0000E+00  0.0000E+00  0.0000E+00  0.0000E+00  0.0000E+00  0.0000E+00  0.0000E+00  0.0000E+00  0.0000E+00  0.0000E+00  0.0000E+00  0.0000E+00  0.0000E+00  0.0000E+00  0.0000E+00  0.0000E+00  0.0000E+00  0.0000E+00
    -55.254  0.0000E+00  0.0000E+00  0.0000E+00  0.0000E+00  0.0000E+00  0.0000E+00  0.0000E+00  0.0000E+00  0.0000E+00  0.0000E+00  0.0000E+00  0.0000E+00  0.0000E+00  0.0000E+00  0.0000E+00  0.0000E+00  0.0000E+00  0.0000E+00
    -54.981  0.0000E+00  0.0000E+00  0.0000E+00  0.0000E+00  0.0000E+00  0.0000E+00  0.0000E+00  0.0000E+00  0.0000E+00  0.0000E+00  0.0000E+00  0.0000E+00  0.0000E+00  0.0000E+00  0.0000E+00  0.0000E+00  0.0000E+00  0.0000E+00
    -54.708  0.0000E+00  0.0000E+00  0.0000E+00  0.0000E+00  0.0000E+00  0.0000E+00  0.0000E+00  0.0000E+00  0.0000E+00  0.0000E+00  0.0000E+00  0.0000E+00  0.0000E+00  0.0000E+00  0.0000E+00  0.0000E+00  0.0000E+00  0.0000E+00
    -54.435  0.0000E+00  0.0000E+00  0.0000E+00  0.0000E+00  0.0000E+00  0.0000E+00  0.0000E+00  0.0000E+00  0.0000E+00  0.0000E+00  0.0000E+00  0.0000E+00  0.0000E+00  0.0000E+00  0.0000E+00  0.0000E+00  0.0000E+00  0.0000E+00
    -54.162  0.0000E+00  0.0000E+00  0.0000E+00  0.0000E+00  0.0000E+00  0.0000E+00  0.0000E+00  0.0000E+00  0.0000E+00  0.0000E+00  0.0000E+00  0.0000E+00  0.0000E+00  0.0000E+00  0.0000E+00  0.0000E+00  0.0000E+00  0.0000E+00
    -53.889  0.0000E+00  0.0000E+00  0.0000E+00  0.0000E+00  0.0000E+00  0.0000E+00  0.0000E+00  0.0000E+00  0.0000E+00  0.0000E+00  0.0000E+00  0.0000E+00  0.0000E+00  0.0000E+00  0.0000E+00  0.0000E+00  0.0000E+00  0.0000E+00
    -53.616  0.1415E-04  0.1453E-04  0.3198E-09  0.3289E-09  0.3198E-09  0.3289E-09  0.3198E-09  0.3289E-09  0.9507E-10  0.9764E-10  0.9507E-10  0.9764E-10  0.5573E-11  0.5732E-11  0.9507E-10  0.9764E-10  0.5573E-11  0.5732E-11
    -53.343  0.3619E-02  0.3716E-02  0.7842E-07  0.8063E-07  0.7842E-07  0.8063E-07  0.7842E-07  0.8063E-07  0.3259E-07  0.3347E-07  0.3259E-07  0.3347E-07  0.1661E-08  0.1707E-08  0.3259E-07  0.3347E-07  0.1661E-08  0.1707E-08
    -53.070  0.4083E+00  0.4153E+00  0.9816E-05  0.9992E-05  0.9816E-05  0.9992E-05  0.9816E-05  0.9992E-05  0.5889E-05  0.6020E-05  0.5889E-05  0.6020E-05  0.2818E-06  0.2878E-06  0.5889E-05  0.6020E-05  0.2818E-06  0.2878E-06
    -52.797  0.2787E+01  0.2789E+01  0.4821E-04  0.4817E-04  0.4821E-04  0.4817E-04  0.4821E-04  0.4817E-04  0.6911E-04  0.6913E-04  0.6911E-04  0.6913E-04  0.2750E-05  0.2746E-05  0.6911E-04  0.6913E-04  0.2750E-05  0.2746E-05
    -52.524  0.4039E+00  0.3919E+00  0.5358E-05  0.5224E-05  0.5358E-05  0.5224E-05  0.5358E-05  0.5224E-05  0.6909E-05  0.6595E-05  0.6909E-05  0.6595E-05  0.2784E-06  0.2681E-06  0.6909E-05  0.6595E-05  0.2784E-06  0.2681E-06
    -52.251  0.0000E+00  0.0000E+00  0.0000E+00  0.0000E+00  0.0000E+00  0.0000E+00  0.0000E+00  0.0000E+00  0.0000E+00  0.0000E+00  0.0000E+00  0.0000E+00  0.0000E+00  0.0000E+00  0.0000E+00  0.0000E+00  0.0000E+00  0.0000E+00
    -51.978  0.0000E+00  0.0000E+00  0.0000E+00  0.0000E+00  0.0000E+00  0.0000E+00  0.0000E+00  0.0000E+00  0.0000E+00  0.0000E+00  0.0000E+00  0.0000E+00  0.0000E+00  0.0000E+00  0.0000E+00  0.0000E+00  0.0000E+00  0.0000E+00
    -51.705  0.0000E+00  0.0000E+00  0.0000E+00  0.0000E+00  0.0000E+00  0.0000E+00  0.0000E+00  0.0000E+00  0.0000E+00  0.0000E+00  0.0000E+00  0.0000E+00  0.0000E+00  0.0000E+00  0.0000E+00  0.0000E+00  0.0000E+00  0.0000E+00
    -51.432  0.0000E+00  0.0000E+00  0.0000E+00  0.0000E+00  0.0000E+00  0.0000E+00  0.0000E+00  0.0000E+00  0.0000E+00  0.0000E+00  0.0000E+00  0.0000E+00  0.0000E+00  0.0000E+00  0.0000E+00  0.0000E+00  0.0000E+00  0.0000E+00
    -51.159  0.0000E+00  0.0000E+00  0.0000E+00  0.0000E+00  0.0000E+00  0.0000E+00  0.0000E+00  0.0000E+00  0.0000E+00  0.0000E+00  0.0000E+00  0.0000E+00  0.0000E+00  0.0000E+00  0.0000E+00  0.0000E+00  0.0000E+00  0.0000E+00
    -50.886  0.0000E+00  0.0000E+00  0.0000E+00  0.0000E+00  0.0000E+00  0.0000E+00  0.0000E+00  0.0000E+00  0.0000E+00  0.0000E+00  0.0000E+00  0.0000E+00  0.0000E+00  0.0000E+00  0.0000E+00  0.0000E+00  0.0000E+00  0.0000E+00
    -50.613  0.0000E+00  0.0000E+00  0.0000E+00  0.0000E+00  0.0000E+00  0.0000E+00  0.0000E+00  0.0000E+00  0.0000E+00  0.0000E+00  0.0000E+00  0.0000E+00  0.0000E+00  0.0000E+00  0.0000E+00  0.0000E+00  0.0000E+00  0.0000E+00
    -50.340  0.0000E+00  0.0000E+00  0.0000E+00  0.0000E+00  0.0000E+00  0.0000E+00  0.0000E+00  0.0000E+00  0.0000E+00  0.0000E+00  0.0000E+00  0.0000E+00  0.0000E+00  0.0000E+00  0.0000E+00  0.0000E+00  0.0000E+00  0.0000E+00
    -50.067  0.0000E+00  0.0000E+00  0.0000E+00  0.0000E+00  0.0000E+00  0.0000E+00  0.0000E+00  0.0000E+00  0.0000E+00  0.0000E+00  0.0000E+00  0.0000E+00  0.0000E+00  0.0000E+00  0.0000E+00  0.0000E+00  0.0000E+00  0.0000E+00
    -49.794  0.0000E+00  0.0000E+00  0.0000E+00  0.0000E+00  0.0000E+00  0.0000E+00  0.0000E+00  0.0000E+00  0.0000E+00  0.0000E+00  0.0000E+00  0.0000E+00  0.0000E+00  0.0000E+00  0.0000E+00  0.0000E+00  0.0000E+00  0.0000E+00
    -49.521  0.0000E+00  0.0000E+00  0.0000E+00  0.0000E+00  0.0000E+00  0.0000E+00  0.0000E+00  0.0000E+00  0.0000E+00  0.0000E+00  0.0000E+00  0.0000E+00  0.0000E+00  0.0000E+00  0.0000E+00  0.0000E+00  0.0000E+00  0.0000E+00
    -49.248  0.0000E+00  0.0000E+00  0.0000E+00  0.0000E+00  0.0000E+00  0.0000E+00  0.0000E+00  0.0000E+00  0.0000E+00  0.0000E+00  0.0000E+00  0.0000E+00  0.0000E+00  0.0000E+00  0.0000E+00  0.0000E+00  0.0000E+00  0.0000E+00
    -48.975  0.0000E+00  0.0000E+00  0.0000E+00  0.0000E+00  0.0000E+00  0.0000E+00  0.0000E+00  0.0000E+00  0.0000E+00  0.0000E+00  0.0000E+00  0.0000E+00  0.0000E+00  0.0000E+00  0.0000E+00  0.0000E+00  0.0000E+00  0.0000E+00
    -48.702  0.0000E+00  0.0000E+00  0.0000E+00  0.0000E+00  0.0000E+00  0.0000E+00  0.0000E+00  0.0000E+00  0.0000E+00  0.0000E+00  0.0000E+00  0.0000E+00  0.0000E+00  0.0000E+00  0.0000E+00  0.0000E+00  0.0000E+00  0.0000E+00
    -48.429  0.0000E+00  0.0000E+00  0.0000E+00  0.0000E+00  0.0000E+00  0.0000E+00  0.0000E+00  0.0000E+00  0.0000E+00  0.0000E+00  0.0000E+00  0.0000E+00  0.0000E+00  0.0000E+00  0.0000E+00  0.0000E+00  0.0000E+00  0.0000E+00
    -48.156  0.0000E+00  0.0000E+00  0.0000E+00  0.0000E+00  0.0000E+00  0.0000E+00  0.0000E+00  0.0000E+00  0.0000E+00  0.0000E+00  0.0000E+00  0.0000E+00  0.0000E+00  0.0000E+00  0.0000E+00  0.0000E+00  0.0000E+00  0.0000E+00
    -47.883  0.0000E+00  0.0000E+00  0.0000E+00  0.0000E+00  0.0000E+00  0.0000E+00  0.0000E+00  0.0000E+00  0.0000E+00  0.0000E+00  0.0000E+00  0.0000E+00  0.0000E+00  0.0000E+00  0.0000E+00  0.0000E+00  0.0000E+00  0.0000E+00
    -47.610  0.0000E+00  0.0000E+00  0.0000E+00  0.0000E+00  0.0000E+00  0.0000E+00  0.0000E+00  0.0000E+00  0.0000E+00  0.0000E+00  0.0000E+00  0.0000E+00  0.0000E+00  0.0000E+00  0.0000E+00  0.0000E+00  0.0000E+00  0.0000E+00
    -47.337  0.0000E+00  0.0000E+00  0.0000E+00  0.0000E+00  0.0000E+00  0.0000E+00  0.0000E+00  0.0000E+00  0.0000E+00  0.0000E+00  0.0000E+00  0.0000E+00  0.0000E+00  0.0000E+00  0.0000E+00  0.0000E+00  0.0000E+00  0.0000E+00
    -47.064  0.0000E+00  0.0000E+00  0.0000E+00  0.0000E+00  0.0000E+00  0.0000E+00  0.0000E+00  0.0000E+00  0.0000E+00  0.0000E+00  0.0000E+00  0.0000E+00  0.0000E+00  0.0000E+00  0.0000E+00  0.0000E+00  0.0000E+00  0.0000E+00
    -46.791  0.0000E+00  0.0000E+00  0.0000E+00  0.0000E+00  0.0000E+00  0.0000E+00  0.0000E+00  0.0000E+00  0.0000E+00  0.0000E+00  0.0000E+00  0.0000E+00  0.0000E+00  0.0000E+00  0.0000E+00  0.0000E+00  0.0000E+00  0.0000E+00
    -46.518  0.0000E+00  0.0000E+00  0.0000E+00  0.0000E+00  0.0000E+00  0.0000E+00  0.0000E+00  0.0000E+00  0.0000E+00  0.0000E+00  0.0000E+00  0.0000E+00  0.0000E+00  0.0000E+00  0.0000E+00  0.0000E+00  0.0000E+00  0.0000E+00
    -46.245  0.0000E+00  0.0000E+00  0.0000E+00  0.0000E+00  0.0000E+00  0.0000E+00  0.0000E+00  0.0000E+00  0.0000E+00  0.0000E+00  0.0000E+00  0.0000E+00  0.0000E+00  0.0000E+00  0.0000E+00  0.0000E+00  0.0000E+00  0.0000E+00
    -45.972  0.0000E+00  0.0000E+00  0.0000E+00  0.0000E+00  0.0000E+00  0.0000E+00  0.0000E+00  0.0000E+00  0.0000E+00  0.0000E+00  0.0000E+00  0.0000E+00  0.0000E+00  0.0000E+00  0.0000E+00  0.0000E+00  0.0000E+00  0.0000E+00
    -45.699  0.0000E+00  0.0000E+00  0.0000E+00  0.0000E+00  0.0000E+00  0.0000E+00  0.0000E+00  0.0000E+00  0.0000E+00  0.0000E+00  0.0000E+00  0.0000E+00  0.0000E+00  0.0000E+00  0.0000E+00  0.0000E+00  0.0000E+00  0.0000E+00
    -45.426  0.0000E+00  0.0000E+00  0.0000E+00  0.0000E+00  0.0000E+00  0.0000E+00  0.0000E+00  0.0000E+00  0.0000E+00  0.0000E+00  0.0000E+00  0.0000E+00  0.0000E+00  0.0000E+00  0.0000E+00  0.0000E+00  0.0000E+00  0.0000E+00
    -45.153  0.0000E+00  0.0000E+00  0.0000E+00  0.0000E+00  0.0000E+00  0.0000E+00  0.0000E+00  0.0000E+00  0.0000E+00  0.0000E+00  0.0000E+00  0.0000E+00  0.0000E+00  0.0000E+00  0.0000E+00  0.0000E+00  0.0000E+00  0.0000E+00
    -44.880  0.0000E+00  0.0000E+00  0.0000E+00  0.0000E+00  0.0000E+00  0.0000E+00  0.0000E+00  0.0000E+00  0.0000E+00  0.0000E+00  0.0000E+00  0.0000E+00  0.0000E+00  0.0000E+00  0.0000E+00  0.0000E+00  0.0000E+00  0.0000E+00
    -44.607  0.0000E+00  0.0000E+00  0.0000E+00  0.0000E+00  0.0000E+00  0.0000E+00  0.0000E+00  0.0000E+00  0.0000E+00  0.0000E+00  0.0000E+00  0.0000E+00  0.0000E+00  0.0000E+00  0.0000E+00  0.0000E+00  0.0000E+00  0.0000E+00
    -44.334  0.0000E+00  0.0000E+00  0.0000E+00  0.0000E+00  0.0000E+00  0.0000E+00  0.0000E+00  0.0000E+00  0.0000E+00  0.0000E+00  0.0000E+00  0.0000E+00  0.0000E+00  0.0000E+00  0.0000E+00  0.0000E+00  0.0000E+00  0.0000E+00
    -44.061  0.0000E+00  0.0000E+00  0.0000E+00  0.0000E+00  0.0000E+00  0.0000E+00  0.0000E+00  0.0000E+00  0.0000E+00  0.0000E+00  0.0000E+00  0.0000E+00  0.0000E+00  0.0000E+00  0.0000E+00  0.0000E+00  0.0000E+00  0.0000E+00
    -43.788  0.0000E+00  0.0000E+00  0.0000E+00  0.0000E+00  0.0000E+00  0.0000E+00  0.0000E+00  0.0000E+00  0.0000E+00  0.0000E+00  0.0000E+00  0.0000E+00  0.0000E+00  0.0000E+00  0.0000E+00  0.0000E+00  0.0000E+00  0.0000E+00
    -43.515  0.0000E+00  0.0000E+00  0.0000E+00  0.0000E+00  0.0000E+00  0.0000E+00  0.0000E+00  0.0000E+00  0.0000E+00  0.0000E+00  0.0000E+00  0.0000E+00  0.0000E+00  0.0000E+00  0.0000E+00  0.0000E+00  0.0000E+00  0.0000E+00
    -43.242  0.0000E+00  0.0000E+00  0.0000E+00  0.0000E+00  0.0000E+00  0.0000E+00  0.0000E+00  0.0000E+00  0.0000E+00  0.0000E+00  0.0000E+00  0.0000E+00  0.0000E+00  0.0000E+00  0.0000E+00  0.0000E+00  0.0000E+00  0.0000E+00