   2   2   1   0
  0.1306534E+02  0.2967451E-09  0.2967451E-09  0.2967451E-09  0.5000000E-15
  1.000000000000000E-004
  CAR 
 unknown system                          
     24.29766888    -57.30591119  301     10.09830485      1.00000000
    -57.306  0.0000E+00  0.0000E+00  0.0000E+00  0.0000E+00
    -57.034  0.0000E+00  0.0000E+00  0.0000E+00  0.0000E+00
    -56.762  0.0000E+00  0.0000E+00  0.0000E+00  0.0000E+00
    -56.490  0.0000E+00  0.0000E+00  0.0000E+00  0.0000E+00
    -56.218  0.0000E+00  0.0000E+00  0.0000E+00  0.0000E+00
    -55.946  0.0000E+00  0.0000E+00  0.0000E+00  0.0000E+00
    -55.674  0.0000E+00  0.0000E+00  0.0000E+00  0.0000E+00
    -55.402  0.0000E+00  0.0000E+00  0.0000E+00  0.0000E+00
    -55.130  0.0000E+00  0.0000E+00  0.0000E+00  0.0000E+00
    -54.858  0.0000E+00  0.0000E+00  0.0000E+00  0.0000E+00
    -54.586  0.0000E+00  0.0000E+00  0.0000E+00  0.0000E+00
    -54.314  0.0000E+00  0.0000E+00  0.0000E+00  0.0000E+00
    -54.042  0.3862E-04  0.3890E-04  0.1051E-04  0.1058E-04
    -53.770  0.9567E-02  0.9621E-02  0.2613E-02  0.2628E-02
    -53.498  0.1074E+01  0.1078E+01  0.2949E+00  0.2959E+00
    -53.226  0.5725E+01  0.5724E+01  0.1852E+01  0.1853E+01
    -52.954  0.3628E+00  0.3612E+00  0.1999E+01  0.1999E+01
    -52.682  0.0000E+00  0.0000E+00  0.2000E+01  0.2000E+01
    -52.410  0.0000E+00  0.0000E+00  0.2000E+01  0.2000E+01
    -52.138  0.0000E+00  0.0000E+00  0.2000E+01  0.2000E+01
    -51.866  0.0000E+00  0.0000E+00  0.2000E+01  0.2000E+01
    -51.594  0.0000E+00  0.0000E+00  0.2000E+01  0.2000E+01
    -51.322  0.0000E+00  0.0000E+00  0.2000E+01  0.2000E+01
    -51.050  0.0000E+00  0.0000E+00  0.2000E+01  0.2000E+01
    -50.778  0.0000E+00  0.0000E+00  0.2000E+01  0.2000E+01
    -50.506  0.0000E+00  0.0000E+00  0.2000E+01  0.2000E+01
    -50.234  0.0000E+00  0.0000E+00  0.2000E+01  0.2000E+01
    -49.962  0.0000E+00  0.0000E+00  0.2000E+01  0.2000E+01
    -49.690  0.0000E+00  0.0000E+00  0.2000E+01  0.2000E+01
    -49.418  0.0000E+00  0.0000E+00  0.2000E+01  0.2000E+01
    -49.146  0.0000E+00  0.0000E+00  0.2000E+01  0.2000E+01
    -48.874  0.0000E+00  0.0000E+00  0.2000E+01  0.2000E+01
    -48.602  0.0000E+00  0.0000E+00  0.2000E+01  0.2000E+01
    -48.330  0.0000E+00  0.0000E+00  0.2000E+01  0.2000E+01
    -48.058  0.0000E+00  0.0000E+00  0.2000E+01  0.2000E+01
    -47.785  0.0000E+00  0.0000E+00  0.2000E+01  0.2000E+01
    -47.513  0.0000E+00  0.0000E+00  0.2000E+01  0.2000E+01
    -47.241  0.0000E+00  0.0000E+00  0.2000E+01  0.2000E+01
    -46.969  0.0000E+00  0.0000E+00  0.2000E+01  0.2000E+01
    -46.697  0.0000E+00  0.0000E+00  0.2000E+01  0.2000E+01
    -46.425  0.0000E+00  0.0000E+00  0.2000E+01  0.2000E+01
    -46.153  0.0000E+00  0.0000E+00  0.2000E+01  0.2000E+01
    -45.881  0.0000E+00  0.0000E+00  0.2000E+01  0.2000E+01
    -45.609  0.0000E+00  0.0000E+00  0.2000E+01  0.2000E+01
    -45.337  0.0000E+00  0.0000E+00  0.2000E+01  0.2000E+01
    -45.065  0.0000E+00  0.0000E+00  0.2000E+01  0.2000E+01
    -44.793  0.0000E+00  0.0000E+00  0.2000E+01  0.2000E+01
    -44.521  0.0000E+00  0.0000E+00  0.2000E+01  0.2000E+01
    -44.249  0.0000E+00  0.0000E+00  0.2000E+01  0.2000E+01
    -43.977  0.0000E+00  0.0000E+00  0.2000E+01  0.2000E+01
    -43.705  0.0000E+00  0.0000E+00  0.2000E+01  0.2000E+01
    -43.433  0.0000E+00  0.0000E+00  0.2000E+01  0.2000E+01
    -43.161  0.0000E+00  0.0000E+00  0.2000E+01  0.2000E+01
    -42.889  0.0000E+00  0.0000E+00  0.2000E+01  0.2000E+01
    -42.617  0.0000E+00  0.0000E+00  0.2000E+01  0.2000E+01
    -42.345  0.0000E+00  0.0000E+00  0.2000E+01  0.2000E+01
    -42.073  0.0000E+00  0.0000E+00  0.2000E+01  0.2000E+01
    -41.801  0.0000E+00  0.0000E+00  0.2000E+01  0.2000E+01
    -41.529  0.0000E+00  0.0000E+00  0.2000E+01  0.2000E+01
    -41.257  0.0000E+00  0.0000E+00  0.2000E+01  0.2000E+01
    -40.985  0.0000E+00  0.0000E+00  0.2000E+01  0.2000E+01
    -40.713  0.0000E+00  0.0000E+00  0.2000E+01  0.2000E+01
    -40.441  0.0000E+00  0.0000E+00  0.2000E+01  0.2000E+01
    -40.169  0.0000E+00  0.0000E+00  0.2000E+01  0.2000E+01
    -39.897  0.0000E+00  0.0000E+00  0.2000E+01  0.2000E+01
    -39.625  0.0000E+00  0.0000E+00  0.2000E+01  0.2000E+01
    -39.353  0.0000E+00  0.0000E+00  0.2000E+01  0.2000E+01
    -39.081  0.0000E+00  0.0000E+00  0.2000E+01  0.2000E+01
    -38.809  0.0000E+00  0.0000E+00  0.2000E+01  0.2000E+01
    -38.537  0.0000E+00  0.0000E+00  0.2000E+01  0.2000E+01
    -38.265  0.0000E+00  0.0000E+00  0.2000E+01  0.2000E+01
    -37.993  0.0000E+00  0.0000E+00  0.2000E+01  0.2000E+01
    -37.721  0.0000E+00  0.0000E+00  0.2000E+01  0.2000E+01
    -37.449  0.0000E+00  0.0000E+00  0.2000E+01  0.2000E+01
    -37.177  0.0000E+00  0.0000E+00  0.2000E+01  0.2000E+01
    -36.905  0.0000E+00  0.0000E+00  0.2000E+01  0.2000E+01
    -36.633  0.0000E+00  0.0000E+00  0.2000E+01  0.2000E+01
    -36.361  0.0000E+00  0.0000E+00  0.2000E+01  0.2000E+01
    -36.089  0.0000E+00  0.0000E+00  0.2000E+01  0.2000E+01
    -35.817  0.0000E+00  0.0000E+00  0.2000E+01  0.2000E+01
    -35.545  0.0000E+00  0.0000E+00  0.2000E+01  0.2000E+01
    -35.273  0.0000E+00  0.0000E+00  0.2000E+01  0.2000E+01
    -35.001  0.0000E+00  0.0000E+00  0.2000E+01  0.2000E+01
    -34.729  0.0000E+00  0.0000E+00  0.2000E+01  0.2000E+01
    -34.457  0.0000E+00  0.0000E+00  0.2000E+01  0.2000E+01
    -34.185  0.0000E+00  0.0000E+00  0.2000E+01  0.2000E+01
    -33.913  0.0000E+00  0.0000E+00  0.2000E+01  0.2000E+01
    -33.641  0.0000E+00  0.0000E+00  0.2000E+01  0.2000E+01
    -33.369  0.0000E+00  0.0000E+00  0.2000E+01  0.2000E+01
    -33.097  0.0000E+00  0.0000E+00  0.2000E+01  0.2000E+01
    -32.825  0.0000E+00  0.0000E+00  0.2000E+01  0.2000E+01
    -32.553  0.0000E+00  0.0000E+00  0.2000E+01  0.2000E+01
    -32.281  0.0000E+00  0.0000E+00  0.2000E+01  0.2000E+01
    -32.009  0.0000E+00  0.0000E+00  0.2000E+01  0.2000E+01
    -31.737  0.0000E+00  0.0000E+00  0.2000E+01  0.2000E+01
    -31.465  0.0000E+00  0.0000E+00  0.2000E+01  0.2000E+01
    -31.193  0.0000E+00  0.0000E+00  0.2000E+01  0.2000E+01
    -30.921  0.0000E+00  0.0000E+00  0.2000E+01  0.2000E+01
    -30.649  0.0000E+00  0.0000E+00  0.2000E+01  0.2000E+01
    -30.377  0.0000E+00  0.0000E+00  0.2000E+01  0.2000E+01
    -30.105  0.0000E+00  0.0000E+00  0.2000E+01  0.2000E+01
    -29.833  0.0000E+00  0.0000E+00  0.2000E+01  0.2000E+01
    -29.561  0.0000E+00  0.0000E+00  0.2000E+01  0.2000E+01
    -29.289  0.0000E+00  0.0000E+00  0.2000E+01  0.2000E+01
    -29.017  0.0000E+00  0.0000E+00  0.2000E+01  0.2000E+01
    -28.745  0.0000E+00  0.0000E+00  0.2000E+01  0.2000E+01
    -28.473  0.3051E-06  0.3046E-06  0.2000E+01  0.2000E+01
    -28.201  0.2660E-03  0.2656E-03  0.2000E+01  0.2000E+01
    -27.929  0.5863E-01  0.5855E-01  0.2016E+01  0.2016E+01
    -27.657  0.2590E+01  0.2589E+01  0.2721E+01  0.2720E+01
    -27.385  0.5025E+01  0.5026E+01  0.4091E+01  0.4091E+01
    -27.113  0.6021E+01  0.6020E+01  0.5748E+01  0.5748E+01
    -26.841  0.7126E+01  0.7126E+01  0.7708E+01  0.7708E+01
    -26.569  0.9596E+00  0.9602E+00  0.7998E+01  0.7998E+01
    -26.297  0.0000E+00  0.0000E+00  0.8000E+01  0.8000E+01
    -26.025  0.0000E+00  0.0000E+00  0.8000E+01  0.8000E+01
    -25.753  0.0000E+00  0.0000E+00  0.8000E+01  0.8000E+01
    -25.481  0.0000E+00  0.0000E+00  0.8000E+01  0.8000E+01
    -25.209  0.0000E+00  0.0000E+00  0.8000E+01  0.8000E+01
    -24.936  0.0000E+00  0.0000E+00  0.8000E+01  0.8000E+01
    -24.664  0.0000E+00  0.0000E+00  0.8000E+01  0.8000E+01
    -24.392  0.0000E+00  0.0000E+00  0.8000E+01  0.8000E+01
    -24.120  0.0000E+00  0.0000E+00  0.8000E+01  0.8000E+01
    -23.848  0.0000E+00  0.0000E+00  0.8000E+01  0.8000E+01
    -23.576  0.0000E+00  0.0000E+00  0.8000E+01  0.8000E+01
    -23.304  0.0000E+00  0.0000E+00  0.8000E+01  0.8000E+01
    -23.032  0.0000E+00  0.0000E+00  0.8000E+01  0.8000E+01
    -22.760  0.0000E+00  0.0000E+00  0.8000E+01  0.8000E+01
    -22.488  0.0000E+00  0.0000E+00  0.8000E+01  0.8000E+01
    -22.216  0.0000E+00  0.0000E+00  0.8000E+01  0.8000E+01
    -21.944  0.0000E+00  0.0000E+00  0.8000E+01  0.8000E+01
    -21.672  0.0000E+00  0.0000E+00  0.8000E+01  0.8000E+01
    -21.400  0.0000E+00  0.0000E+00  0.8000E+01  0.8000E+01
    -21.128  0.0000E+00  0.0000E+00  0.8000E+01  0.8000E+01
    -20.856  0.0000E+00  0.0000E+00  0.8000E+01  0.8000E+01
    -20.584  0.0000E+00  0.0000E+00  0.8000E+01  0.8000E+01
    -20.312  0.0000E+00  0.0000E+00  0.8000E+01  0.8000E+01
    -20.040  0.0000E+00  0.0000E+00  0.8000E+01  0.8000E+01
    -19.768  0.0000E+00  0.0000E+00  0.8000E+01  0.8000E+01
    -19.496  0.0000E+00  0.0000E+00  0.8000E+01  0.8000E+01
    -19.224  0.0000E+00  0.0000E+00  0.8000E+01  0.8000E+01
    -18.952  0.0000E+00  0.0000E+00  0.8000E+01  0.8000E+01
    -18.680  0.0000E+00  0.0000E+00  0.8000E+01  0.8000E+01
    -18.408  0.0000E+00  0.0000E+00  0.8000E+01  0.8000E+01
    -18.136  0.0000E+00  0.0000E+00  0.8000E+01  0.8000E+01
    -17.864  0.0000E+00  0.0000E+00  0.8000E+01  0.8000E+01
    -17.592  0.0000E+00  0.0000E+00  0.8000E+01  0.8000E+01
    -17.320  0.0000E+00  0.0000E+00  0.8000E+01  0.8000E+01
    -17.048  0.0000E+00  0.0000E+00  0.8000E+01  0.8000E+01
    -16.776  0.0000E+00  0.0000E+00  0.8000E+01  0.8000E+01
    -16.504  0.0000E+00  0.0000E+00  0.8000E+01  0.8000E+01
    -16.232  0.0000E+00  0.0000E+00  0.8000E+01  0.8000E+01
    -15.960  0.0000E+00  0.0000E+00  0.8000E+01  0.8000E+01
    -15.688  0.0000E+00  0.0000E+00  0.8000E+01  0.8000E+01
    -15.416  0.0000E+00  0.0000E+00  0.8000E+01  0.8000E+01
    -15.144  0.0000E+00  0.0000E+00  0.8000E+01  0.8000E+01
    -14.872  0.0000E+00  0.0000E+00  0.8000E+01  0.8000E+01
    -14.600  0.0000E+00  0.0000E+00  0.8000E+01  0.8000E+01
    -14.328  0.0000E+00  0.0000E+00  0.8000E+01  0.8000E+01
    -14.056  0.0000E+00  0.0000E+00  0.8000E+01  0.8000E+01
    -13.784  0.0000E+00  0.0000E+00  0.8000E+01  0.8000E+01
    -13.512  0.0000E+00  0.0000E+00  0.8000E+01  0.8000E+01
    -13.240  0.0000E+00  0.0000E+00  0.8000E+01  0.8000E+01
    -12.968  0.0000E+00  0.0000E+00  0.8000E+01  0.8000E+01
    -12.696  0.0000E+00  0.0000E+00  0.8000E+01  0.8000E+01
    -12.424  0.0000E+00  0.0000E+00  0.8000E+01  0.8000E+01
    -12.152  0.0000E+00  0.0000E+00  0.8000E+01  0.8000E+01
    -11.880  0.0000E+00  0.0000E+00  0.8000E+01  0.8000E+01
    -11.608  0.0000E+00  0.0000E+00  0.8000E+01  0.8000E+01
    -11.336  0.0000E+00  0.0000E+00  0.8000E+01  0.8000E+01
    -11.064  0.0000E+00  0.0000E+00  0.8000E+01  0.8000E+01
    -10.792  0.0000E+00  0.0000E+00  0.8000E+01  0.8000E+01
    -10.520  0.0000E+00  0.0000E+00  0.8000E+01  0.8000E+01
    -10.248  0.0000E+00  0.0000E+00  0.8000E+01  0.8000E+01
     -9.976  0.0000E+00  0.0000E+00  0.8000E+01  0.8000E+01
     -9.704  0.0000E+00  0.0000E+00  0.8000E+01  0.8000E+01
     -9.432  0.0000E+00  0.0000E+00  0.8000E+01  0.8000E+01
     -9.160  0.0000E+00  0.0000E+00  0.8000E+01  0.8000E+01
     -8.888  0.0000E+00  0.0000E+00  0.8000E+01  0.8000E+01
     -8.616  0.0000E+00  0.0000E+00  0.8000E+01  0.8000E+01
     -8.344  0.0000E+00  0.0000E+00  0.8000E+01  0.8000E+01
     -8.072  0.0000E+00  0.0000E+00  0.8000E+01  0.8000E+01
     -7.800  0.0000E+00  0.0000E+00  0.8000E+01  0.8000E+01
     -7.528  0.0000E+00  0.0000E+00  0.8000E+01  0.8000E+01
     -7.256  0.0000E+00  0.0000E+00  0.8000E+01  0.8000E+01
     -6.984  0.0000E+00  0.0000E+00  0.8000E+01  0.8000E+01
     -6.712  0.0000E+00  0.0000E+00  0.8000E+01  0.8000E+01
     -6.440  0.0000E+00  0.0000E+00  0.8000E+01  0.8000E+01
     -6.168  0.0000E+00  0.0000E+00  0.8000E+01  0.8000E+01
     -5.896  0.0000E+00  0.0000E+00  0.8000E+01  0.8000E+01
     -5.624  0.0000E+00  0.0000E+00  0.8000E+01  0.8000E+01
     -5.352  0.0000E+00  0.0000E+00  0.8000E+01  0.8000E+01
     -5.080  0.0000E+00  0.0000E+00  0.8000E+01  0.8000E+01
     -4.808  0.0000E+00  0.0000E+00  0.8000E+01  0.8000E+01
     -4.536  0.0000E+00  0.0000E+00  0.8000E+01  0.8000E+01
     -4.264  0.0000E+00  0.0000E+00  0.8000E+01  0.8000E+01
     -3.992  0.0000E+00  0.0000E+00  0.8000E+01  0.8000E+01
     -3.720  0.0000E+00  0.0000E+00  0.8000E+01  0.8000E+01
     -3.448  0.0000E+00  0.0000E+00  0.8000E+01  0.8000E+01
     -3.176  0.0000E+00  0.0000E+00  0.8000E+01  0.8000E+01
     -2.904  0.0000E+00  0.0000E+00  0.8000E+01  0.8000E+01
     -2.632  0.0000E+00  0.0000E+00  0.8000E+01  0.8000E+01
     -2.360  0.0000E+00  0.0000E+00  0.8000E+01  0.8000E+01
     -2.087  0.0000E+00  0.0000E+00  0.8000E+01  0.8000E+01
     -1.815  0.0000E+00  0.0000E+00  0.8000E+01  0.8000E+01
     -1.543  0.0000E+00  0.0000E+00  0.8000E+01  0.8000E+01
     -1.271  0.0000E+00  0.0000E+00  0.8000E+01  0.8000E+01
     -0.999  0.0000E+00  0.0000E+00  0.8000E+01  0.8000E+01
     -0.727  0.0000E+00  0.0000E+00  0.8000E+01  0.8000E+01
     -0.455  0.0000E+00  0.0000E+00  0.8000E+01  0.8000E+01
     -0.183  0.0000E+00  0.0000E+00  0.8000E+01  0.8000E+01
      0.089  0.0000E+00  0.0000E+00  0.8000E+01  0.8000E+01
      0.361  0.0000E+00  0.0000E+00  0.8000E+01  0.8000E+01
      0.633  0.0000E+00  0.0000E+00  0.8000E+01  0.8000E+01
      0.905  0.0000E+00  0.0000E+00  0.8000E+01  0.8000E+01
      1.177  0.0000E+00  0.0000E+00  0.8000E+01  0.8000E+01
      1.449  0.0000E+00  0.0000E+00  0.8000E+01  0.8000E+01
      1.721  0.0000E+00  0.0000E+00  0.8000E+01  0.8000E+01
      1.993  0.0000E+00  0.0000E+00  0.8000E+01  0.8000E+01
      2.265  0.0000E+00  0.0000E+00  0.8000E+01  0.8000E+01
      2.537  0.0000E+00  0.0000E+00  0.8000E+01  0.8000E+01
      2.809  0.5391E-08  0.5398E-08  0.8000E+01  0.8000E+01
      3.081  0.1979E-05  0.1981E-05  0.8000E+01  0.8000E+01
      3.353  0.4132E-03  0.4137E-03  0.8000E+01  0.8000E+01
      3.625  0.1388E-01  0.1389E-01  0.8004E+01  0.8004E+01
      3.897  0.3459E-01  0.3459E-01  0.8013E+01  0.8013E+01
      4.169  0.6606E-01  0.6607E-01  0.8031E+01  0.8031E+01
      4.441  0.5056E-01  0.5057E-01  0.8045E+01  0.8045E+01
      4.713  0.9876E-01  0.9876E-01  0.8072E+01  0.8072E+01
      4.985  0.9624E-01  0.9625E-01  0.8098E+01  0.8098E+01
      5.257  0.8552E-01  0.8551E-01  0.8122E+01  0.8122E+01
      5.529  0.1639E+00  0.1639E+00  0.8167E+01  0.8167E+01
      5.801  0.1415E+00  0.1415E+00  0.8206E+01  0.8206E+01
      6.073  0.1648E+00  0.1648E+00  0.8252E+01  0.8252E+01
      6.345  0.2286E+00  0.2286E+00  0.8315E+01  0.8315E+01
      6.617  0.2687E+00  0.2686E+00  0.8389E+01  0.8389E+01
      6.889  0.4792E+00  0.4789E+00  0.8520E+01  0.8520E+01
      7.161  0.8922E+00  0.8920E+00  0.8764E+01  0.8764E+01
      7.433  0.9896E+00  0.9894E+00  0.9035E+01  0.9035E+01
      7.705  0.1278E+01  0.1277E+01  0.9388E+01  0.9388E+01
      7.977  0.1373E+01  0.1374E+01  0.9769E+01  0.9769E+01
      8.249  0.9814E+00  0.9812E+00  0.1004E+02  0.1004E+02
      8.521  0.5739E+00  0.5742E+00  0.1020E+02  0.1020E+02
      8.793  0.9632E+00  0.9618E+00  0.1046E+02  0.1046E+02
      9.065  0.2144E+01  0.2143E+01  0.1105E+02  0.1105E+02
      9.337  0.1831E+01  0.1831E+01  0.1156E+02  0.1156E+02
      9.609  0.1732E+01  0.1732E+01  0.1203E+02  0.1203E+02
      9.881  0.1957E+01  0.1957E+01  0.1257E+02  0.1257E+02
     10.153  0.1887E+01  0.1887E+01  0.1309E+02  0.1309E+02
     10.425  0.1375E+01  0.1376E+01  0.1347E+02  0.1347E+02
     10.697  0.6436E+00  0.6441E+00  0.1366E+02  0.1366E+02
     10.969  0.5663E+00  0.5665E+00  0.1381E+02  0.1381E+02
     11.241  0.4574E+00  0.4568E+00  0.1394E+02  0.1394E+02
     11.513  0.6318E+00  0.6315E+00  0.1411E+02  0.1411E+02
     11.785  0.9782E+00  0.9772E+00  0.1438E+02  0.1438E+02
     12.057  0.1394E+01  0.1394E+01  0.1476E+02  0.1476E+02
     12.329  0.1826E+01  0.1831E+01  0.1527E+02  0.1527E+02
     12.601  0.2187E+01  0.2186E+01  0.1587E+02  0.1587E+02
     12.873  0.2484E+01  0.2485E+01  0.1655E+02  0.1655E+02
     13.145  0.3124E+01  0.3124E+01  0.1741E+02  0.1741E+02
     13.417  0.1622E+01  0.1638E+01  0.1787E+02  0.1786E+02
     13.689  0.1231E+01  0.1231E+01  0.1821E+02  0.1821E+02
     13.961  0.1004E+01  0.1004E+01  0.1849E+02  0.1849E+02
     14.233  0.6717E+00  0.6722E+00  0.1867E+02  0.1867E+02
     14.505  0.5185E+00  0.5193E+00  0.1881E+02  0.1881E+02
     14.777  0.2813E+00  0.2807E+00  0.1889E+02  0.1889E+02
     15.049  0.4060E+00  0.4066E+00  0.1900E+02  0.1900E+02
     15.321  0.2623E+00  0.2623E+00  0.1908E+02  0.1908E+02
     15.593  0.3880E+00  0.3876E+00  0.1918E+02  0.1918E+02
     15.865  0.3548E+00  0.3551E+00  0.1928E+02  0.1928E+02
     16.137  0.1589E+00  0.1589E+00  0.1933E+02  0.1933E+02
     16.409  0.3135E+00  0.3133E+00  0.1942E+02  0.1942E+02
     16.681  0.3050E+00  0.3051E+00  0.1950E+02  0.1950E+02
     16.953  0.2637E+00  0.2694E+00  0.1957E+02  0.1957E+02
     17.225  0.1896E+00  0.1897E+00  0.1963E+02  0.1963E+02
     17.497  0.1963E+00  0.1963E+00  0.1968E+02  0.1968E+02
     17.769  0.2578E+00  0.2577E+00  0.1975E+02  0.1975E+02
     18.041  0.1590E+00  0.1592E+00  0.1979E+02  0.1979E+02
     18.313  0.1724E+00  0.1722E+00  0.1984E+02  0.1984E+02
     18.585  0.1528E+00  0.1527E+00  0.1988E+02  0.1988E+02
     18.857  0.1028E+00  0.1030E+00  0.1991E+02  0.1991E+02
     19.129  0.9425E-01  0.9427E-01  0.1994E+02  0.1994E+02
     19.401  0.8122E-01  0.8120E-01  0.1996E+02  0.1996E+02
     19.673  0.6622E-01  0.6619E-01  0.1998E+02  0.1998E+02
     19.945  0.1116E-01  0.1117E-01  0.1998E+02  0.1998E+02
     20.217  0.3515E-01  0.3521E-01  0.1999E+02  0.1999E+02
     20.490  0.2675E-01  0.2672E-01  0.2000E+02  0.2000E+02
     20.762  0.8174E-02  0.8145E-02  0.2000E+02  0.2000E+02
     21.034  0.0000E+00  0.0000E+00  0.2000E+02  0.2000E+02
     21.306  0.0000E+00  0.0000E+00  0.2000E+02  0.2000E+02
     21.578  0.0000E+00  0.0000E+00  0.2000E+02  0.2000E+02
     21.850  0.0000E+00  0.0000E+00  0.2000E+02  0.2000E+02
     22.122  0.0000E+00  0.0000E+00  0.2000E+02  0.2000E+02
     22.394  0.0000E+00  0.0000E+00  0.2000E+02  0.2000E+02
     22.666  0.0000E+00  0.0000E+00  0.2000E+02  0.2000E+02
     22.938  0.0000E+00  0.0000E+00  0.2000E+02  0.2000E+02
     23.210  0.0000E+00  0.0000E+00  0.2000E+02  0.2000E+02
     23.482  0.0000E+00  0.0000E+00  0.2000E+02  0.2000E+02
     23.754  0.0000E+00  0.0000E+00  0.2000E+02  0.2000E+02
     24.026  0.0000E+00  0.0000E+00  0.2000E+02  0.2000E+02
     24.298  0.0000E+00  0.0000E+00  0.2000E+02  0.2000E+02
     24.29766888    -57.30591119  301     10.09830485      1.00000000
    -57.306  0.0000E+00  0.0000E+00  0.0000E+00  0.0000E+00  0.0000E+00  0.0000E+00  0.0000E+00  0.0000E+00  0.0000E+00  0.0000E+00  0.0000E+00  0.0000E+00  0.0000E+00  0.0000E+00  0.0000E+00  0.0000E+00  0.0000E+00  0.0000E+00
    -57.034  0.0000E+00  0.0000E+00  0.0000E+00  0.0000E+00  0.0000E+00  0.0000E+00  0.0000E+00  0.0000E+00  0.0000E+00  0.0000E+00  0.0000E+00  0.0000E+00  0.0000E+00  0.0000E+00  0.0000E+00  0.0000E+00  0.0000E+00  0.0000E+00
    -56.762  0.0000E+00  0.0000E+00  0.0000E+00  0.0000E+00  0.0000E+00  0.0000E+00  0.0000E+00  0.0000E+00  0.0000E+00  0.0000E+00  0.0000E+00  0.0000E+00  0.0000E+00  0.0000E+00  0.0000E+00  0.0000E+00  0.0000E+00  0.0000E+00
    -56.490  0.0000E+00  0.0000E+00  0.0000E+00  0.0000E+00  0.0000E+00  0.0000E+00  0.0000E+00  0.0000E+00  0.0000E+00  0.0000E+00  0.0000E+00  0.0000E+00  0.0000E+00  0.0000E+00  0.0000E+00  0.0000E+00  0.0000E+00  0.0000E+00
    -56.218  0.0000E+00  0.0000E+00  0.0000E+00  0.0000E+00  0.0000E+00  0.0000E+00  0.0000E+00  0.0000E+00  0.0000E+00  0.0000E+00  0.0000E+00  0.0000E+00  0.0000E+00  0.0000E+00  0.0000E+00  0.0000E+00  0.0000E+00  0.0000E+00
    -55.946  0.0000E+00  0.0000E+00  0.0000E+00  0.0000E+00  0.0000E+00  0.0000E+00  0.0000E+00  0.0000E+00  0.0000E+00  0.0000E+00  0.0000E+00  0.0000E+00  0.0000E+00  0.0000E+00  0.0000E+00  0.0000E+00  0.0000E+00  0.0000E+00
    -55.674  0.0000E+00  0.0000E+00  0.0000E+00  0.0000E+00  0.0000E+00  0.0000E+00  0.0000E+00  0.0000E+00  0.0000E+00  0.0000E+00  0.0000E+00  0.0000E+00  0.0000E+00  0.0000E+00  0.0000E+00  0.0000E+00  0.0000E+00  0.0000E+00
    -55.402  0.0000E+00  0.0000E+00  0.0000E+00  0.0000E+00  0.0000E+00  0.0000E+00  0.0000E+00  0.0000E+00  0.0000E+00  0.0000E+00  0.0000E+00  0.0000E+00  0.0000E+00  0.0000E+00  0.0000E+00  0.0000E+00  0.0000E+00  0.0000E+00
    -55.130  0.0000E+00  0.0000E+00  0.0000E+00  0.0000E+00  0.0000E+00  0.0000E+00  0.0000E+00  0.0000E+00  0.0000E+00  0.0000E+00  0.0000E+00  0.0000E+00  0.0000E+00  0.0000E+00  0.0000E+00  0.0000E+00  0.0000E+00  0.0000E+00
    -54.858  0.0000E+00  0.0000E+00  0.0000E+00  0.0000E+00  0.0000E+00  0.0000E+00  0.0000E+00  0.0000E+00  0.0000E+00  0.0000E+00  0.0000E+00  0.0000E+00  0.0000E+00  0.0000E+00  0.0000E+00  0.0000E+00  0.0000E+00  0.0000E+00
    -54.586  0.0000E+00  0.0000E+00  0.0000E+00  0.0000E+00  0.0000E+00  0.0000E+00  0.0000E+00  0.0000E+00  0.0000E+00  0.0000E+00  0.0000E+00  0.0000E+00  0.0000E+00  0.0000E+00  0.0000E+00  0.0000E+00  0.0000E+00  0.0000E+00
    -54.314  0.0000E+00  0.0000E+00  0.0000E+00  0.0000E+00  0.0000E+00  0.0000E+00  0.0000E+00  0.0000E+00  0.0000E+00  0.0000E+00  0.0000E+00  0.0000E+00  0.0000E+00  0.0000E+00  0.0000E+00  0.0000E+00  0.0000E+00  0.0000E+00
    -54.042  0.1919E-04  0.1933E-04  0.3456E-09  0.3489E-09  0.3456E-09  0.3489E-09  0.3456E-09  0.3489E-09  0.1413E-09  0.1422E-09  0.1413E-09  0.1422E-09  0.7051E-11  0.7147E-11  0.1413E-09  0.1422E-09  0.7051E-11  0.7147E-11
    -53.770  0.4756E-02  0.4782E-02  0.8262E-07  0.8317E-07  0.8262E-07  0.8317E-07  0.8262E-07  0.8317E-07  0.4044E-07  0.4066E-07  0.4044E-07  0.4066E-07  0.1908E-08  0.1919E-08  0.4044E-07  0.4066E-07  0.1908E-08  0.1919E-08
    -53.498  0.5345E+00  0.5364E+00  0.9846E-05  0.9888E-05  0.9846E-05  0.9888E-05  0.9846E-05  0.9888E-05  0.6985E-05  0.7015E-05  0.6985E-05  0.7015E-05  0.3085E-06  0.3097E-06  0.6985E-05  0.7015E-05  0.3085E-06  0.3097E-06
    -53.226  0.2853E+01  0.2852E+01  0.3808E-04  0.3807E-04  0.3808E-04  0.3807E-04  0.3808E-04  0.3807E-04  0.5522E-04  0.5518E-04  0.5522E-04  0.5518E-04  0.2107E-05  0.2102E-05  0.5522E-04  0.5518E-04  0.2107E-05  0.2102E-05
    -52.954  0.1810E+00  0.1802E+00  0.2065E-05  0.2055E-05  0.2065E-05  0.2055E-05  0.2065E-05  0.2055E-05  0.1755E-05  0.1744E-05  0.1755E-05  0.1744E-05  0.7571E-07  0.7517E-07  0.1755E-05  0.1744E-05  0.7571E-07  0.7517E-07
    -52.682  0.0000E+00  0.0000E+00  0.0000E+00  0.0000E+00  0.0000E+00  0.0000E+00  0.0000E+00  0.0000E+00  0.0000E+00  0.0000E+00  0.0000E+00  0.0000E+00  0.0000E+00  0.0000E+00  0.0000E+00  0.0000E+00  0.0000E+00  0.0000E+00
    -52.410  0.0000E+00  0.0000E+00  0.0000E+00  0.0000E+00  0.0000E+00  0.0000E+00  0.0000E+00  0.0000E+00  0.0000E+00  0.0000E+00  0.0000E+00  0.0000E+00  0.0000E+00  0.0000E+00  0.0000E+00  0.0000E+00  0.0000E+00  0.0000E+00
    -52.138  0.0000E+00  0.0000E+00  0.0000E+00  0.0000E+00  0.0000E+00  0.0000E+00  0.0000E+00  0.0000E+00  0.0000E+00  0.0000E+00  0.0000E+00  0.0000E+00  0.0000E+00  0.0000E+00  0.0000E+00  0.0000E+00  0.0000E+00  0.0000E+00
    -51.866  0.0000E+00  0.0000E+00  0.0000E+00  0.0000E+00  0.0000E+00  0.0000E+00  0.0000E+00  0.0000E+00  0.0000E+00  0.0000E+00  0.0000E+00  0.0000E+00  0.0000E+00  0.0000E+00  0.0000E+00  0.0000E+00  0.0000E+00  0.0000E+00
    -51.594  0.0000E+00  0.0000E+00  0.0000E+00  0.0000E+00  0.0000E+00  0.0000E+00  0.0000E+00  0.0000E+00  0.0000E+00  0.0000E+00  0.0000E+00  0.0000E+00  0.0000E+00  0.0000E+00  0.0000E+00  0.0000E+00  0.0000E+00  0.0000E+00
    -51.322  0.0000E+00  0.0000E+00  0.0000E+00  0.0000E+00  0.0000E+00  0.0000E+00  0.0000E+00  0.0000E+00  0.0000E+00  0.0000E+00  0.0000E+00  0.0000E+00  0.0000E+00  0.0000E+00  0.0000E+00  0.0000E+00  0.0000E+00  0.0000E+00
    -51.050  0.0000E+00  0.0000E+00  0.0000E+00  0.0000E+00  0.0000E+00  0.0000E+00  0.0000E+00  0.0000E+00  0.0000E+00  0.0000E+00  0.0000E+00  0.0000E+00  0.0000E+00  0.0000E+00  0.0000E+00  0.0000E+00  0.0000E+00  0.0000E+00
    -50.778  0.0000E+00  0.0000E+00  0.0000E+00  0.0000E+00  0.0000E+00  0.0000E+00  0.0000E+00  0.0000E+00  0.0000E+00  0.0000E+00  0.0000E+00  0.0000E+00  0.0000E+00  0.0000E+00  0.0000E+00  0.0000E+00  0.0000E+00  0.0000E+00
    -50.506  0.0000E+00  0.0000E+00  0.0000E+00  0.0000E+00  0.0000E+00  0.0000E+00  0.0000E+00  0.0000E+00  0.0000E+00  0.0000E+00  0.0000E+00  0.0000E+00  0.0000E+00  0.0000E+00  0.0000E+00  0.0000E+00  0.0000E+00  0.0000E+00
    -50.234  0.0000E+00  0.0000E+00  0.0000E+00  0.0000E+00  0.0000E+00  0.0000E+00  0.0000E+00  0.0000E+00  0.0000E+00  0.0000E+00  0.0000E+00  0.0000E+00  0.0000E+00  0.0000E+00  0.0000E+00  0.0000E+00  0.0000E+00  0.0000E+00
    -49.962  0.0000E+00  0.0000E+00  0.0000E+00  0.0000E+00  0.0000E+00  0.0000E+00  0.0000E+00  0.0000E+00  0.0000E+00  0.0000E+00  0.0000E+00  0.0000E+00  0.0000E+00  0.0000E+00  0.0000E+00  0.0000E+00  0.0000E+00  0.0000E+00
    -49.690  0.0000E+00  0.0000E+00  0.0000E+00  0.0000E+00  0.0000E+00  0.0000E+00  0.0000E+00  0.0000E+00  0.0000E+00  0.0000E+00  0.0000E+00  0.0000E+00  0.0000E+00  0.0000E+00  0.0000E+00  0.0000E+00  0.0000E+00  0.0000E+00
    -49.418  0.0000E+00  0.0000E+00  0.0000E+00  0.0000E+00  0.0000E+00  0.0000E+00  0.0000E+00  0.0000E+00  0.0000E+00  0.0000E+00  0.0000E+00  0.0000E+00  0.0000E+00  0.0000E+00  0.0000E+00  0.0000E+00  0.0000E+00  0.0000E+00
    -49.146  0.0000E+00  0.0000E+00  0.0000E+00  0.0000E+00  0.0000E+00  0.0000E+00  0.0000E+00  0.0000E+00  0.0000E+00  0.0000E+00  0.0000E+00  0.0000E+00  0.0000E+00  0.0000E+00  0.0000E+00  0.0000E+00  0.0000E+00  0.0000E+00
    -48.874  0.0000E+00  0.0000E+00  0.0000E+00  0.0000E+00  0.0000E+00  0.0000E+00  0.0000E+00  0.0000E+00  0.0000E+00  0.0000E+00  0.0000E+00  0.0000E+00  0.0000E+00  0.0000E+00  0.0000E+00  0.0000E+00  0.0000E+00  0.0000E+00
    -48.602  0.0000E+00  0.0000E+00  0.0000E+00  0.0000E+00  0.0000E+00  0.0000E+00  0.0000E+00  0.0000E+00  0.0000E+00  0.0000E+00  0.0000E+00  0.0000E+00  0.0000E+00  0.0000E+00  0.0000E+00  0.0000E+00  0.0000E+00  0.0000E+00
    -48.330  0.0000E+00  0.0000E+00  0.0000E+00  0.0000E+00  0.0000E+00  0.0000E+00  0.0000E+00  0.0000E+00  0.0000E+00  0.0000E+00  0.0000E+00  0.0000E+00  0.0000E+00  0.0000E+00  0.0000E+00  0.0000E+00  0.0000E+00  0.0000E+00
    -48.058  0.0000E+00  0.0000E+00  0.0000E+00  0.0000E+00  0.0000E+00  0.0000E+00  0.0000E+00  0.0000E+00  0.0000E+00  0.0000E+00  0.0000E+00  0.0000E+00  0.0000E+00  0.0000E+00  0.0000E+00  0.0000E+00  0.0000E+00  0.0000E+00
    -47.785  0.0000E+00  0.0000E+00  0.0000E+00  0.0000E+00  0.0000E+00  0.0000E+00  0.0000E+00  0.0000E+00  0.0000E+00  0.0000E+00  0.0000E+00  0.0000E+00  0.0000E+00  0.0000E+00  0.0000E+00  0.0000E+00  0.0000E+00  0.0000E+00
    -47.513  0.0000E+00  0.0000E+00  0.0000E+00  0.0000E+00  0.0000E+00  0.0000E+00  0.0000E+00  0.0000E+00  0.0000E+00  0.0000E+00  0.0000E+00  0.0000E+00  0.0000E+00  0.0000E+00  0.0000E+00  0.0000E+00  0.0000E+00  0.0000E+00
    -47.241  0.0000E+00  0.0000E+00  0.0000E+00  0.0000E+00  0.0000E+00  0.0000E+00  0.0000E+00  0.0000E+00  0.0000E+00  0.0000E+00  0.0000E+00  0.0000E+00  0.0000E+00  0.0000E+00  0.0000E+00  0.0000E+00  0.0000E+00  0.0000E+00
    -46.969  0.0000E+00  0.0000E+00  0.0000E+00  0.0000E+00  0.0000E+00  0.0000E+00  0.0000E+00  0.0000E+00  0.0000E+00  0.0000E+00  0.0000E+00  0.0000E+00  0.0000E+00  0.0000E+00  0.0000E+00  0.0000E+00  0.0000E+00  0.0000E+00
    -46.697  0.0000E+00  0.0000E+00  0.0000E+00  0.0000E+00  0.0000E+00  0.0000E+00  0.0000E+00  0.0000E+00  0.0000E+00  0.0000E+00  0.0000E+00  0.0000E+00  0.0000E+00  0.0000E+00  0.0000E+00  0.0000E+00  0.0000E+00  0.0000E+00
    -46.425  0.0000E+00  0.0000E+00  0.0000E+00  0.0000E+00  0.0000E+00  0.0000E+00  0.0000E+00  0.0000E+00  0.0000E+00  0.0000E+00  0.0000E+00  0.0000E+00  0.0000E+00  0.0000E+00  0.0000E+00  0.0000E+00  0.0000E+00  0.0000E+00
    -46.153  0.0000E+00  0.0000E+00  0.0000E+00  0.0000E+00  0.0000E+00  0.0000E+00  0.0000E+00  0.0000E+00  0.0000E+00  0.0000E+00  0.0000E+00  0.0000E+00  0.0000E+00  0.0000E+00  0.0000E+00  0.0000E+00  0.0000E+00  0.0000E+00
    -45.881  0.0000E+00  0.0000E+00  0.0000E+00  0.0000E+00  0.0000E+00  0.0000E+00  0.0000E+00  0.0000E+00  0.0000E+00  0.0000E+00  0.0000E+00  0.0000E+00  0.0000E+00  0.0000E+00  0.0000E+00  0.0000E+00  0.0000E+00  0.0000E+00
    -45.609  0.0000E+00  0.0000E+00  0.0000E+00  0.0000E+00  0.0000E+00  0.0000E+00  0.0000E+00  0.0000E+00  0.0000E+00  0.0000E+00  0.0000E+00  0.0000E+00  0.0000E+00  0.0000E+00  0.0000E+00  0.0000E+00  0.0000E+00  0.0000E+00
    -45.337  0.0000E+00  0.0000E+00  0.0000E+00  0.0000E+00  0.0000E+00  0.0000E+00  0.0000E+00  0.0000E+00  0.0000E+00  0.0000E+00  0.0000E+00  0.0000E+00  0.0000E+00  0.0000E+00  0.0000E+00  0.0000E+00  0.0000E+00  0.0000E+00
    -45.065  0.0000E+00  0.0000E+00  0.0000E+00  0.0000E+00  0.0000E+00  0.0000E+00  0.0000E+00  0.0000E+00  0.0000E+00  0.0000E+00  0.0000E+00  0.0000E+00  0.0000E+00  0.0000E+00  0.0000E+00  0.0000E+00  0.0000E+00  0.0000E+00
    -44.793  0.0000E+00  0.0000E+00  0.0000E+00  0.0000E+00  0.0000E+00  0.0000E+00  0.0000E+00  0.0000E+00  0.0000E+00  0.0000E+00  0.0000E+00  0.0000E+00  0.0000E+00  0.0000E+00  0.0000E+00  0.0000E+00  0.0000E+00  0.0000E+00
    -44.521  0.0000E+00  0.0000E+00  0.0000E+00  0.0000E+00  0.0000E+00  0.0000E+00  0.0000E+00  0.0000E+00  0.0000E+00  0.0000E+00  0.0000E+00  0.0000E+00  0.0000E+00  0.0000E+00  0.0000E+00  0.0000E+00  0.0000E+00  0.0000E+00
    -44.249  0.0000E+00  0.0000E+00  0.0000E+00  0.0000E+00  0.0000E+00  0.0000E+00  0.0000E+00  0.0000E+00  0.0000E+00  0.0000E+00  0.0000E+00  0.0000E+00  0.0000E+00  0.0000E+00  0.0000E+00  0.0000E+00  0.0000E+00  0.0000E+00
    -43.977  0.0000E+00  0.0000E+00  0.0000E+00  0.0000E+00  0.0000E+00  0.0000E+00  0.0000E+00  0.0000E+00  0.0000E+00  0.0000E+00  0.0000E+00  0.0000E+00  0.0000E+00  0.0000E+00  0.0000E+00  0.0000E+00  0.0000E+00  0.0000E+00
    -43.705  0.0000E+00  0.0000E+00  0.0000E+00  0.0000E+00  0.0000E+00  0.0000E+00  0.0000E+00  0.0000E+00  0.0000E+00  0.0000E+00  0.0000E+00  0.0000E+00  0.0000E+00  0.0000E+00  0.0000E+00  0.0000E+00  0.0000E+00  0.0000E+00